 &FCI NORB=  3,NELEC=  2,MS2= 0,
  ORBSYM=1,1,1,
  ISYM=1,
  OCC=  1,  0,  0,  0,  0,  0,  0,  0,
  CLOSED=  1,  0,  0,  0,  0,  0,  0,  0,
  FOCK=     -4.732566015893,     -0.309254434437,      0.185687218716,
 /
  0.3432454480584346E+00   1   1   1   1
 -0.6961757990496434E-01   2   1   1   1
  0.3459333305462708E-01   2   1   2   1
  0.2378817479580717E+00   2   2   1   1
 -0.2945808999436289E-01   2   2   2   1
  0.1924339362967517E+00   2   2   2   2
  0.3170368625418565E-01   3   1   1   1
 -0.2494824045620960E-01   3   1   2   1
  0.1507481920281501E-01   3   1   2   2
  0.3772700271565338E-01   3   1   3   1
 -0.6799919941220985E-01   3   2   1   1
  0.2888314646865393E-01   3   2   2   1
 -0.3250898796123873E-01   3   2   2   2
 -0.2531954368275202E-01   3   2   3   1
  0.3029946073869222E-01   3   2   3   2
  0.3485237502029095E+00   3   3   1   1
 -0.8309439444456979E-01   3   3   2   1
  0.2409395945537096E+00   3   3   2   2
  0.7772530744315997E-01   3   3   3   1
 -0.9303873221949344E-01   3   3   3   2
  0.4473681108710122E+00   3   3   3   3
 -0.6524998812613050E+00   1   1   0   0
  0.6961758109965188E-01   2   1   0   0
 -0.2554829436204544E+00   2   2   0   0
 -0.3170368615917951E-01   3   1   0   0
  0.1110501577268712E+00   3   2   0   0
  0.8061623271333589E+00   3   3   0   0
 -0.1361111915378220E+02   0   0   0   0
