 &FCI NORB= 14,NELEC=  6,MS2= 2,
  ORBSYM=1,1,1,1,1,1,1,1,1,1,1,1,1,1,
  ISYM=1,
  IUHF=1,
  OCC=  4,  0,  0,  0,  0,  0,  0,  0,
  CLOSED=  2,  0,  0,  0,  0,  0,  0,  0,
  FOCKA=    -11.310808511509,     -0.712117122299,     -0.124434152072,     -0.124434152072,      1.174447501339,
       0.063627753835,      0.695227682467,      0.695227682467,      0.732813231341,      0.986454520192,      1.409003450804,      1.409003450804,      1.418412261014,      1.418412261014,
  FOCKB=    -11.310808511509,     -0.712117122299,     -0.124434152072,     -0.124434152072,      1.174447501339,
       0.063627753835,      0.695227682467,      0.695227682467,      0.732813231341,      0.986454520192,      1.409003450804,      1.409003450804,      1.418412261014,      1.418412261014,
 /
  0.3504887644448905E+01   1   1   1   1
 -0.3460439114806846E+00   2   1   1   1
  0.5470344302671140E-01   2   1   2   1
  0.8255578287418858E+00   2   2   1   1
 -0.1455161541716302E-01   2   2   2   1
  0.5844737294064739E+00   2   2   2   2
  0.9607005406464374E-17   3   1   1   1
 -0.7893914052133008E-18   3   1   2   1
  0.2015286088055779E-17   3   1   2   2
  0.2170472607607974E-01   3   1   3   1
 -0.4369415688226192E-18   3   2   1   1
  0.9905775085568768E-18   3   2   2   1
  0.6907066030133224E-17   3   2   2   2
  0.2520544279123334E-01   3   2   3   1
  0.1191620112486037E+00   3   2   3   2
  0.7790237046604364E+00   3   3   1   1
 -0.8910158711248214E-02   3   3   2   1
  0.5630024504699280E+00   3   3   2   2
 -0.4171137449151468E-17   3   3   3   1
 -0.2404046647242904E-16   3   3   3   2
  0.5818282843568172E+00   3   3   3   3
  0.2253128822777378E-17   4   1   1   1
 -0.1038559163774665E-18   4   1   2   1
  0.6019957766905991E-18   4   1   2   2
 -0.3641074973580544E-16   4   1   3   1
 -0.2825325098068785E-16   4   1   3   2
  0.4451653866546490E-18   4   1   3   3
  0.2170472607607972E-01   4   1   4   1
  0.1148996221095565E-17   4   2   1   1
  0.2955277539437887E-18   4   2   2   1
  0.2686407215124944E-17   4   2   2   2
 -0.2761117597830020E-16   4   2   3   1
 -0.5007116197975540E-16   4   2   3   2
  0.2282437850995646E-17   4   2   3   3
  0.2520544279123332E-01   4   2   4   1
  0.1191620112486036E+00   4   2   4   2
 -0.4717770931909262E-15   4   3   1   1
  0.1328188154208403E-16   4   3   2   1
 -0.2322641465622871E-15   4   3   2   2
 -0.2271672241775970E-19   4   3   3   1
  0.5012451727128575E-18   4   3   3   2
 -0.2324529457808922E-15   4   3   3   3
  0.2229643170794703E-17   4   3   4   1
  0.1664555953621697E-16   4   3   4   2
  0.2949810030216326E-01   4   3   4   3
  0.7790237046604361E+00   4   4   1   1
 -0.8910158711248208E-02   4   4   2   1
  0.5630024504699278E+00   4   4   2   2
  0.4790389009133031E-17   4   4   3   1
  0.2415382664227851E-16   4   4   3   2
  0.5228320837524907E+00   4   4   3   3
 -0.1243001263467844E-18   4   4   4   1
  0.1032305071294093E-18   4   4   4   2
 -0.1942890293094024E-15   4   4   4   3
  0.5818282843568169E+00   4   4   4   4
 -0.1773677802771520E-17   5   1   1   1
  0.1799575744530880E-18   5   1   2   1
 -0.2773974719715566E-18   5   1   2   2
  0.2509797660129624E-16   5   1   3   1
  0.2013672743111986E-16   5   1   3   2
 -0.4222285806625369E-17   5   1   3   3
 -0.1137668421791815E-16   5   1   4   1
 -0.6794667243692136E-17   5   1   4   2
  0.1617936074852362E-17   5   1   4   3
  0.1362598650197493E-17   5   1   4   4
  0.1234370311586607E-01   5   1   5   1
  0.4332210554555844E-18   5   2   1   1
 -0.1446821841613399E-18   5   2   2   1
 -0.6827136398806249E-18   5   2   2   2
  0.2430468876401959E-16   5   2   3   1
  0.4060539587694162E-16   5   2   3   2
 -0.2538665554898442E-16   5   2   3   3
 -0.1527527204207040E-16   5   2   4   1
 -0.2082579815676836E-16   5   2   4   2
  0.7531285121186064E-17   5   2   4   3
  0.8901233388084789E-17   5   2   4   4
  0.1623290052367588E-01   5   2   5   1
  0.9398102764868793E-01   5   2   5   2
  0.3677154937251340E-15   5   3   1   1
 -0.9934137668809198E-17   5   3   2   1
  0.1599452680691672E-15   5   3   2   2
 -0.2286860691343775E-17   5   3   3   1
 -0.1705747186133457E-16   5   3   3   2
  0.1659913526075307E-15   5   3   3   3
  0.3914029573966708E-18   5   3   4   1
  0.2435298972901155E-17   5   3   4   2
 -0.3469446951953614E-17   5   3   4   3
  0.1453915113303061E-15   5   3   4   4
 -0.5426880659015965E-18   5   3   5   1
 -0.3193244553783823E-17   5   3   5   2
  0.2565700988456807E-01   5   3   5   3
 -0.1908103812740911E-15   5   4   1   1
  0.4717338622102473E-17   5   4   2   1
 -0.6242887459681132E-16   5   4   2   2
 -0.2031897754012623E-17   5   4   3   1
 -0.7109008683053151E-17   5   4   3   2
 -0.7199102425303749E-16   5   4   3   3
  0.8061563450115763E-18   5   4   4   1
  0.5688065504674638E-17   5   4   4   2
  0.1973247953923618E-16   5   4   4   3
 -0.8695301423333746E-16   5   4   4   4
  0.1051109302164582E-17   5   4   5   1
  0.8355903593997516E-17   5   4   5   2
 -0.4336808689942018E-18   5   4   5   3
  0.2565700988456805E-01   5   4   5   4
  0.6414405331234990E+00   5   5   1   1
 -0.5327707382980038E-02   5   5   2   1
  0.4995936394289683E+00   5   5   2   2
 -0.1250992993801656E-17   5   5   3   1
 -0.7348044633346589E-17   5   5   3   2
  0.4693749893905605E+00   5   5   3   3
  0.2280228607754534E-17   5   5   4   1
  0.1302670014000867E-16   5   5   4   2
 -0.9714451465470120E-16   5   5   4   3
  0.4693749893905603E+00   5   5   4   4
 -0.2291565617865884E-18   5   5   5   1
 -0.1714497344926704E-17   5   5   5   2
  0.9974659986866641E-16   5   5   5   3
 -0.3295974604355933E-16   5   5   5   4
  0.4774188575030974E+00   5   5   5   5
 -0.3287765843208715E-16   6   1   1   1
  0.5421704720160774E-17   6   1   2   1
 -0.8006072215392644E-18   6   1   2   2
  0.1458246586523489E-01   6   1   3   1
  0.1531871749778913E-01   6   1   3   2
 -0.2996890726462887E-17   6   1   3   3
 -0.2098380552319027E-01   6   1   4   1
 -0.2204325330221655E-01   6   1   4   2
 -0.1865563930317006E-17   6   1   4   3
  0.1295507601979924E-17   6   1   4   4
  0.3974267312374077E-15   6   1   5   1
  0.4665024976385099E-15   6   1   5   2
 -0.1684476201273154E-17   6   1   5   3
 -0.1887561108543939E-17   6   1   5   4
 -0.3325183115446123E-17   6   1   5   5
  0.3021352141659307E-01   6   1   6   1
  0.3905533794678380E-16   6   2   1   1
 -0.1341043879636008E-17   6   2   2   1
  0.1632919120128080E-16   6   2   2   2
  0.8510725153440344E-02   6   2   3   1
  0.2035267335884092E-01   6   2   3   2
  0.1968720894867841E-16   6   2   3   3
 -0.1224672172261856E-01   6   2   4   1
 -0.2928699052586839E-01   6   2   4   2
 -0.5762413200756264E-17   6   2   4   3
  0.8804060508329206E-17   6   2   4   4
  0.2596890527398719E-15   6   2   5   1
  0.8198882247893534E-15   6   2   5   2
 -0.4412809209473622E-17   6   2   5   3
  0.6646231930627224E-19   6   2   5   4
  0.7776497192341462E-17   6   2   5   5
  0.1632880116088298E-01   6   2   6   1
  0.3098316704927982E-01   6   2   6   2
  0.2029526084152656E+00   6   3   1   1
 -0.5913707117842964E-02   6   3   2   1
  0.8431725666728888E-01   6   3   2   2
  0.4197546346562367E-17   6   3   3   1
  0.1892410267720256E-16   6   3   3   2
  0.8572091309986146E-01   6   3   3   3
 -0.1369224967777183E-17   6   3   4   1
 -0.8301589492792825E-17   6   3   4   2
 -0.6959538606826167E-02   6   3   4   3
  0.7604800281105162E-01   6   3   4   4
 -0.2146314930443958E-17   6   3   5   1
 -0.8112403665707697E-17   6   3   5   2
  0.2455717920679668E-15   6   3   5   3
 -0.2970713952610282E-16   6   3   5   4
  0.5717431950992706E-01   6   3   5   5
  0.3401409430249662E-17   6   3   6   1
  0.1271918803989134E-16   6   3   6   2
  0.4327704190749013E-01   6   3   6   3
 -0.2920437534205415E+00   6   4   1   1
  0.8509677391240301E-02   6   4   2   1
 -0.1213304342699249E+00   6   4   2   2
 -0.2632334172226646E-17   6   4   3   1
 -0.9815517294602548E-17   6   4   3   2
 -0.1094311837354285E+00   6   4   3   3
 -0.1506778148258629E-17   6   4   4   1
 -0.1589955628469393E-16   6   4   4   2
  0.4836455144404971E-02   6   4   4   3
 -0.1233502609490805E+00   6   4   4   4
  0.4662262630947680E-18   6   4   5   1
  0.4238214989336026E-17   6   4   5   2
 -0.9183192400952223E-16   6   4   5   3
  0.2563053935755732E-15   6   4   5   4
 -0.8227242310076385E-01   6   4   5   5
  0.9508648324321728E-18   6   4   6   1
 -0.9099607109818593E-17   6   4   6   2
 -0.4510181296006545E-01   6   4   6   3
  0.7683441745501450E-01   6   4   6   4
  0.6150164032050420E-14   6   5   1   1
 -0.1660262371468903E-15   6   5   2   1
  0.2748650337301003E-14   6   5   2   2
 -0.4990887226991743E-18   6   5   3   1
 -0.5044795548966813E-17   6   5   3   2
  0.2513416110980736E-14   6   5   3   3
  0.4096736190222518E-18   6   5   4   1
  0.4475824603504418E-17   6   5   4   2
 -0.1707618421664669E-16   6   5   4   3
  0.2506710151137324E-14   6   5   4   4
  0.2784715378624385E-18   6   5   5   1
 -0.2933933136277669E-18   6   5   5   2
  0.1310782545344630E-02   6   5   5   3
 -0.1886183466424389E-02   6   5   5   4
  0.2034830637320795E-14   6   5   5   5
 -0.6132289270589938E-18   6   5   6   1
 -0.1536781830438362E-18   6   5   6   2
  0.1019339777516559E-14   6   5   6   3
 -0.1464702924919292E-14   6   5   6   4
  0.1098988068111372E-01   6   5   6   5
  0.6825338078789587E+00   6   6   1   1
 -0.1213469583386729E-01   6   6   2   1
  0.4593163957794193E+00   6   6   2   2
  0.5424329437582020E-17   6   6   3   1
  0.1588583504872228E-16   6   6   3   2
  0.4478509060551377E+00   6   6   3   3
 -0.1450964240000904E-17   6   6   4   1
 -0.1315700721302870E-16   6   6   4   2
 -0.1858560005043261E-01   6   6   4   3
  0.4616792628269746E+00   6   6   4   4
 -0.9448356885064170E-18   6   6   5   1
  0.4423741153851358E-18   6   6   5   2
  0.5256212132209725E-15   6   6   5   3
 -0.6496539417533143E-15   6   6   5   4
  0.3960285691589753E+00   6   6   5   5
  0.3088787649051423E-17   6   6   6   1
  0.1383727765823844E-16   6   6   6   2
  0.5957573532812321E-01   6   6   6   3
 -0.8572800070849018E-01   6   6   6   4
  0.1630640067418199E-14   6   6   6   5
  0.4193353397875840E+00   6   6   6   6
  0.5359670977914225E-16   7   1   1   1
 -0.9304913352166758E-17   7   1   2   1
  0.4160162336322280E-18   7   1   2   2
 -0.2098380552319027E-01   7   1   3   1
 -0.2204325330221655E-01   7   1   3   2
  0.4600031982921810E-17   7   1   3   3
 -0.1458246586523488E-01   7   1   4   1
 -0.1531871749778913E-01   7   1   4   2
 -0.1566486933386249E-17   7   1   4   3
 -0.3009937569954639E-17   7   1   4   4
 -0.2223636086587882E-15   7   1   5   1
 -0.2555771114685737E-15   7   1   5   2
  0.9865125881342541E-18   7   1   5   3
  0.1878917176012203E-17   7   1   5   4
  0.1348711951601120E-17   7   1   5   5
  0.1041219327206725E-16   7   1   6   1
  0.4749671956139597E-17   7   1   6   2
 -0.1803705525154132E-17   7   1   6   3
  0.1861618502767510E-17   7   1   6   4
 -0.4142637940386894E-18   7   1   6   5
 -0.1982592000185766E-17   7   1   6   6
  0.3021352141659314E-01   7   1   7   1
 -0.7013659600120178E-16   7   2   1   1
  0.2053700738004708E-17   7   2   2   1
 -0.3122801032618126E-16   7   2   2   2
 -0.1224672172261857E-01   7   2   3   1
 -0.2928699052586850E-01   7   2   3   2
 -0.2368681963671157E-16   7   2   3   3
 -0.8510725153440346E-02   7   2   4   1
 -0.2035267335884101E-01   7   2   4   2
 -0.8425352426637560E-17   7   2   4   3
 -0.3840569239886476E-16   7   2   4   4
 -0.1427873280520548E-15   7   2   5   1
 -0.4343604270867888E-15   7   2   5   2
 -0.2536381938465177E-17   7   2   5   3
  0.3092869838767018E-17   7   2   5   4
 -0.1091535199576657E-16   7   2   5   5
  0.8254086235820733E-17   7   2   6   1
  0.1140968046294051E-16   7   2   6   2
 -0.1385221287887819E-16   7   2   6   3
  0.1852921933857426E-16   7   2   6   4
 -0.1160259257252388E-17   7   2   6   5
 -0.2587081054347594E-16   7   2   6   6
  0.1632880116088303E-01   7   2   7   1
  0.3098316704927994E-01   7   2   7   2
 -0.2920437534205417E+00   7   3   1   1
  0.8509677391240303E-02   7   3   2   1
 -0.1213304342699252E+00   7   3   2   2
 -0.2180430420142568E-17   7   3   3   1
 -0.4475295052153877E-17   7   3   3   2
 -0.1233502609490809E+00   7   3   3   3
 -0.2877509972502254E-17   7   3   4   1
 -0.1581694136192490E-16   7   3   4   2
 -0.4836455144404804E-02   7   3   4   3
 -0.1094311837354286E+00   7   3   4   4
 -0.1060854094541845E-17   7   3   5   1
 -0.8206583236560391E-17   7   3   5   2
 -0.2016616040823038E-15   7   3   5   3
  0.3491130995403324E-16   7   3   5   4
 -0.8227242310076413E-01   7   3   5   5
  0.1509509615288170E-17   7   3   6   1
 -0.9298145444747322E-17   7   3   6   2
 -0.4510181296006558E-01   7   3   6   3
  0.5296635569866540E-01   7   3   6   4
 -0.1281093287008872E-14   7   3   6   5
 -0.8041923474331655E-01   7   3   6   6
  0.2471547468323098E-17   7   3   7   1
  0.2241251183155302E-16   7   3   7   2
  0.7683441745501486E-01   7   3   7   3
 -0.2029526084152656E+00   7   4   1   1
  0.5913707117842958E-02   7   4   2   1
 -0.8431725666728888E-01   7   4   2   2
 -0.3451702063267981E-17   7   4   3   1
 -0.1632120839507424E-16   7   4   3   2
 -0.7604800281105156E-01   7   4   3   3
 -0.6361594108534771E-17   7   4   4   1
 -0.2283573847543484E-16   7   4   4   2
 -0.6959538606825988E-02   7   4   4   3
 -0.8572091309986141E-01   7   4   4   4
  0.4692698323142363E-18   7   4   5   1
  0.2412450914177849E-17   7   4   5   2
 -0.4445228907190568E-16   7   4   5   3
 -0.7470152968425126E-16   7   4   5   4
 -0.5717431950992707E-01   7   4   5   5
  0.4409048041212605E-17   7   4   6   1
  0.3068377800195754E-17   7   4   6   2
 -0.1940898015114084E-01   7   4   6   3
  0.4510181296006552E-01   7   4   6   4
 -0.7333543494691952E-15   7   4   6   5
 -0.5588646655425310E-01   7   4   6   6
  0.6224703432238802E-17   7   4   7   1
  0.2316953954237397E-16   7   4   7   2
  0.4510181296006543E-01   7   4   7   3
  0.4327704190749009E-01   7   4   7   4
 -0.3420234837543007E-14   7   5   1   1
  0.9214944193793223E-16   7   5   2   1
 -0.1504804671004366E-14   7   5   2   2
 -0.1260549086641713E-17   7   5   3   1
 -0.8551841822725545E-17   7   5   3   2
 -0.1391465068167896E-14   7   5   3   3
  0.1157754393856110E-17   7   5   4   1
  0.3601161952285431E-17   7   5   4   2
 -0.6735605996566196E-17   7   5   4   3
 -0.1365118955376499E-14   7   5   4   4
  0.1428876564198078E-17   7   5   5   1
  0.1833412988250436E-16   7   5   5   2
 -0.1886183466424418E-02   7   5   5   3
 -0.1310782545344660E-02   7   5   5   4
 -0.1117432969072185E-14   7   5   5   5
 -0.1806568227095301E-17   7   5   6   1
 -0.2599525249660937E-17   7   5   6   2
 -0.6545870616381233E-15   7   5   6   3
  0.5723503268550978E-15   7   5   6   4
  0.4282598581317743E-17   7   5   6   5
 -0.1010368004539242E-14   7   5   6   6
  0.5297926568069264E-18   7   5   7   1
  0.6473703897684282E-19   7   5   7   2
  0.7837426454354590E-15   7   5   7   3
  0.5487418245492259E-15   7   5   7   4
  0.1098988068111375E-01   7   5   7   5
  0.1110050526228775E-15   7   6   1   1
 -0.3590293824143052E-17   7   6   2   1
  0.4092931965965347E-16   7   6   2   2
 -0.3391587267803952E-17   7   6   3   1
 -0.1538623071342730E-16   7   6   3   2
 -0.1858560005043251E-01   7   6   3   3
  0.3637155840961587E-17   7   6   4   1
  0.1343916629418670E-16   7   6   4   2
  0.6914178385918590E-02   7   6   4   3
  0.1858560005043257E-01   7   6   4   4
 -0.5298977073633728E-18   7   6   5   1
 -0.2528465040422850E-17   7   6   5   2
 -0.3913969842672671E-15   7   6   5   3
 -0.4727121472036799E-16   7   6   5   4
  0.4435742138181320E-16   7   6   5   5
 -0.5891644995460823E-17   7   6   6   1
 -0.1199981837582348E-16   7   6   6   2
 -0.2654382982586931E-02   7   6   6   3
 -0.1844634386935004E-02   7   6   6   4
 -0.5963111948670274E-17   7   6   6   5
 -0.6136584296267955E-16   7   6   6   6
  0.6103494488698661E-18   7   6   7   1
 -0.3633790221239807E-17   7   6   7   2
  0.1844634386935041E-02   7   6   7   3
 -0.2654382982586939E-02   7   6   7   4
  0.3371868756429919E-16   7   6   7   5
  0.1936571172040259E-01   7   6   7   6
  0.6825338078789596E+00   7   7   1   1
 -0.1213469583386732E-01   7   7   2   1
  0.4593163957794194E+00   7   7   2   2
  0.7565590064280027E-17   7   7   3   1
  0.2896352057006185E-16   7   7   3   2
  0.4616792628269755E+00   7   7   3   3
  0.7815425579938533E-17   7   7   4   1
  0.2966733394374173E-16   7   7   4   2
  0.1858560005043264E-01   7   7   4   3
  0.4478509060551380E+00   7   7   4   4
  0.5790945224263755E-18   7   7   5   1
 -0.3767292412280655E-18   7   7   5   2
  0.4414871246360974E-15   7   7   5   3
  0.1283695372222837E-15   7   7   5   4
  0.3960285691589756E+00   7   7   5   5
 -0.3277087126777242E-17   7   7   6   1
  0.5842474904387591E-17   7   7   6   2
  0.5588646655425294E-01   7   7   6   3
 -0.8041923474331633E-01   7   7   6   4
  0.1769417945496343E-14   7   7   6   5
  0.3806039163467783E+00   7   7   6   6
 -0.9864317233769928E-17   7   7   7   1
 -0.3829704770632200E-16   7   7   7   2
 -0.8572800070849096E-01   7   7   7   3
 -0.5957573532812374E-01   7   7   7   4
 -0.9939965517347105E-15   7   7   7   5
  0.1526556658859590E-15   7   7   7   6
  0.4193353397875848E+00   7   7   7   7
 -0.8824933882165155E-15   8   1   1   1
  0.1395719608077639E-15   8   1   2   1
 -0.3433726834604617E-16   8   1   2   2
  0.4539592778694441E-15   8   1   3   1
  0.4888978919395721E-15   8   1   3   2
 -0.1449377042390188E-16   8   1   3   3
 -0.2174995903630415E-15   8   1   4   1
 -0.2399204315737711E-15   8   1   4   2
 -0.4587907516178206E-17   8   1   4   3
 -0.2318317447005824E-16   8   1   4   4
 -0.2201422508476903E-01   8   1   5   1
 -0.2593623393370835E-01   8   1   5   2
  0.3329448869254276E-18   8   1   5   3
 -0.1103028109189436E-17   8   1   5   4
 -0.1196036696791254E-16   8   1   5   5
 -0.1492057162627414E-15   8   1   6   1
 -0.1238965657934312E-15   8   1   6   2
 -0.9564187328971421E-17   8   1   6   3
  0.1882155829265885E-16   8   1   6   4
 -0.9444699569123146E-18   8   1   6   5
 -0.2666552204897293E-16   8   1   6   6
  0.7610837747420330E-16   8   1   7   1
  0.6016006477264209E-16   8   1   7   2
  0.2287799349093304E-16   8   1   7   3
  0.1450994967479697E-16   8   1   7   4
 -0.2083610872555623E-17   8   1   7   5
  0.3866566694305458E-18   8   1   7   6
 -0.3218787001099416E-16   8   1   7   7
  0.3947595326544893E-01   8   1   8   1
  0.9712662434894272E-15   8   2   1   1
 -0.3758742762620495E-16   8   2   2   1
  0.3888754913869927E-15   8   2   2   2
  0.2735792353357734E-15   8   2   3   1
  0.6993140218695714E-15   8   2   3   2
  0.3713173639214747E-15   8   2   3   3
 -0.1329752891833558E-15   8   2   4   1
 -0.3466466546050247E-15   8   2   4   2
 -0.2196343055855629E-16   8   2   4   3
  0.3598162239162650E-15   8   2   4   4
 -0.1453057849828867E-01   8   2   5   1
 -0.4620626785827178E-01   8   2   5   2
 -0.3214234086844909E-17   8   2   5   3
  0.2648307663603095E-18   8   2   5   4
  0.2610720501449033E-15   8   2   5   5
 -0.1127480943342839E-15   8   2   6   1
 -0.2187084239197782E-15   8   2   6   2
  0.1534310555088350E-15   8   2   6   3
 -0.2102695103527692E-15   8   2   6   4
 -0.2415672640537400E-17   8   2   6   5
  0.2708942797976812E-15   8   2   6   6
  0.5962306589635824E-16   8   2   7   1
  0.1109186498794416E-15   8   2   7   2
 -0.2000193625016434E-15   8   2   7   3
 -0.1411466128122020E-15   8   2   7   4
 -0.2505519015735024E-17   8   2   7   5
 -0.5482202079441570E-18   8   2   7   6
  0.2453934304033516E-15   8   2   7   7
  0.2373875862537789E-01   8   2   8   1
  0.4478736641874855E-01   8   2   8   2
  0.6452010298591365E-14   8   3   1   1
 -0.1847345614214796E-15   8   3   2   1
  0.2730824766882490E-14   8   3   2   2
  0.4017492345466826E-16   8   3   3   1
  0.6478410409186219E-16   8   3   3   2
  0.2796591083709110E-14   8   3   3   3
 -0.8226815581139413E-17   8   3   4   1
 -0.4037844366422885E-16   8   3   4   2
 -0.8050201130704870E-16   8   3   4   3
  0.2473607256525678E-14   8   3   4   4
 -0.1330386335022812E-17   8   3   5   1
 -0.8626874677819709E-17   8   3   5   2
 -0.1115964511738888E-01   8   3   5   3
  0.1127570259384925E-16   8   3   5   4
  0.1848293653544664E-14   8   3   5   5
  0.3247488460667826E-16   8   3   6   1
  0.6541627096803849E-16   8   3   6   2
  0.9783840404509192E-15   8   3   6   3
 -0.1394365308979295E-14   8   3   6   4
 -0.6705954716652845E-02   8   3   6   5
  0.1981921571303502E-14   8   3   6   6
 -0.3066360049848657E-16   8   3   7   1
 -0.6890700242698269E-16   8   3   7   2
 -0.1455161945801420E-14   8   3   7   3
 -0.8282762496703011E-15   8   3   7   4
  0.9649701972355467E-02   8   3   7   5
  0.1056012916000881E-15   8   3   7   6
  0.1841083709097635E-14   8   3   7   7
  0.2663295335401214E-17   8   3   8   1
  0.6733010978633523E-17   8   3   8   2
  0.1577512129576995E-01   8   3   8   3
 -0.3104667362770502E-14   8   4   1   1
  0.8804332241466156E-16   8   4   2   1
 -0.1285979954679305E-14   8   4   2   2
 -0.6639254910333692E-17   8   4   3   1
 -0.3679235989629264E-16   8   4   3   2
 -0.1154295842936692E-14   8   4   3   3
  0.3938403246330348E-16   8   4   4   1
  0.6569466977406263E-16   8   4   4   2
  0.1743939194442934E-15   8   4   4   3
 -0.1315191445333541E-14   8   4   4   4
  0.8870033026732724E-18   8   4   5   1
  0.5223541472228970E-17   8   4   5   2
  0.6830473686658678E-17   8   4   5   3
 -0.1115964511738886E-01   8   4   5   4
 -0.8914310262175817E-15   8   4   5   5
 -0.3970718228657700E-16   8   4   6   1
 -0.8229900369079278E-16   8   4   6   2
 -0.6114900252818245E-15   8   4   6   3
  0.6403840131785632E-15   8   4   6   4
  0.9649701972355453E-02   8   4   6   5
 -0.7147060721024445E-15   8   4   6   6
 -0.1966078571229633E-16   8   4   7   1
 -0.4679929705557067E-16   8   4   7   2
  0.4692969103603506E-15   8   4   7   3
  0.5006303531451817E-15   8   4   7   4
  0.6705954716652815E-02   8   4   7   5
  0.2146720301521299E-16   8   4   7   6
 -0.7575320579156219E-15   8   4   7   7
 -0.1989947946972399E-17   8   4   8   1
 -0.4464961955265474E-17   8   4   8   2
 -0.2602085213965211E-16   8   4   8   3
  0.1577512129576988E-01   8   4   8   4
 -0.3475932668882477E+00   8   5   1   1
  0.9137004987212042E-02   8   5   2   1
 -0.1551423444921609E+00   8   5   2   2
 -0.1408527136071728E-17   8   5   3   1
 -0.7683407734105393E-17   8   5   3   2
 -0.1399983641512015E+00   8   5   3   3
  0.2863099591386479E-18   8   5   4   1
  0.3749801020114221E-17   8   5   4   2
  0.1804112415015879E-15   8   5   4   3
 -0.1399983641512014E+00   8   5   4   4
  0.2073930412123342E-16   8   5   5   1
 -0.6690863623091211E-17   8   5   5   2
 -0.5139118297581291E-16   8   5   5   3
  0.2645453300864631E-16   8   5   5   4
 -0.1164042792151724E+00   8   5   5   5
 -0.7819133896490883E-19   8   5   6   1
 -0.1059423945099547E-16   8   5   6   2
 -0.4836474855934590E-01   8   5   6   3
  0.6959566971226802E-01   8   5   6   4
 -0.1768550583758355E-14   8   5   6   5
 -0.1009488453163909E+00   8   5   6   6
 -0.1211972851134045E-17   8   5   7   1
  0.1605539359729970E-16   8   5   7   2
  0.6959566971226797E-01   8   5   7   3
  0.4836474855934575E-01   8   5   7   4
  0.9727461891539946E-15   8   5   7   5
  0.4510281037539698E-16   8   5   7   6
 -0.1009488453163905E+00   8   5   7   7
 -0.1303790139205097E-16   8   5   8   1
 -0.3280190933362703E-15   8   5   8   2
 -0.1783295733304158E-14   8   5   8   3
  0.8985867605559861E-15   8   5   8   4
  0.1106528020841295E+00   8   5   8   5
 -0.2192002231947490E-14   8   6   1   1
  0.6511696171728265E-16   8   6   2   1
 -0.8850414970981592E-15   8   6   2   2
  0.3456931118391600E-16   8   6   3   1
  0.1542144397877356E-15   8   6   3   2
 -0.5515607501976882E-15   8   6   3   3
 -0.4719152067045719E-16   8   6   4   1
 -0.2082923102734922E-15   8   6   4   2
 -0.4185020385794047E-15   8   6   4   3
 -0.6632877840723195E-15   8   6   4   4
 -0.2301931703395417E-17   8   6   5   1
 -0.8331190902324205E-17   8   6   5   2
 -0.1121196724736550E-01   8   6   5   3
  0.1613374188051337E-01   8   6   5   4
 -0.1397319759899318E-14   8   6   5   5
  0.6297371771821560E-16   8   6   6   1
  0.5795644972866753E-16   8   6   6   2
 -0.3581119775719621E-15   8   6   6   3
  0.5339695699491109E-15   8   6   6   4
 -0.1593857745665183E-02   8   6   6   5
 -0.9597357630841685E-15   8   6   6   6
 -0.5955853729168223E-18   8   6   7   1
  0.3700316104262999E-18   8   6   7   2
  0.4357408531219242E-15   8   6   7   3
  0.2146720301521299E-15   8   6   7   4
  0.1124859753953711E-16   8   6   7   5
  0.8413408858487514E-16   8   6   7   6
 -0.4156831129309424E-15   8   6   7   7
  0.4581079343853240E-17   8   6   8   1
  0.9976044283619764E-17   8   6   8   2
  0.5370306985995441E-02   8   6   8   3
 -0.7727738122988731E-02   8   6   8   4
  0.9961649560796815E-15   8   6   8   5
  0.2030986191746392E-01   8   6   8   6
  0.1129001365724640E-14   8   7   1   1
 -0.3306119543740945E-16   8   7   2   1
  0.4697924644070455E-15   8   7   2   2
 -0.4130646110639011E-16   8   7   3   1
 -0.1947453057738810E-15   8   7   3   2
 -0.1503788413237394E-15   8   7   3   3
 -0.2898090526122020E-16   8   7   4   1
 -0.1362061837319892E-15   8   7   4   2
 -0.6461844948013606E-16   8   7   4   3
  0.6630980486921345E-15   8   7   4   4
  0.1144274451886505E-17   8   7   5   1
  0.8450857458945213E-17   8   7   5   2
  0.1613374188051338E-01   8   7   5   3
  0.1121196724736552E-01   8   7   5   4
  0.7194765616613807E-15   8   7   5   5
  0.2801500049414813E-18   8   7   6   1
 -0.4880607406479595E-19   8   7   6   2
  0.2453142940520014E-15   8   7   6   3
 -0.1825931983737150E-15   8   7   6   4
  0.1230569465771048E-16   8   7   6   5
  0.3158280928450274E-15   8   7   6   6
  0.5387360832724044E-16   8   7   7   1
  0.3689032947727946E-16   8   7   7   2
 -0.2029626466892864E-15   8   7   7   3
 -0.2005774019098183E-15   8   7   7   4
 -0.1593857745665134E-02   8   7   7   5
 -0.3924811864397526E-16   8   7   7   6
  0.3165870343657673E-15   8   7   7   7
 -0.1970364569114964E-17   8   7   8   1
 -0.2612973682846280E-17   8   7   8   2
 -0.7727738122988637E-02   8   7   8   3
 -0.5370306985995279E-02   8   7   8   4
 -0.4558528034215303E-15   8   7   8   5
 -0.1010476424756490E-15   8   7   8   6
  0.2030986191746360E-01   8   7   8   7
  0.8200936280315293E+00   8   8   1   1
 -0.1616369219675737E-01   8   8   2   1
  0.5158257109746408E+00   8   8   2   2
  0.2954933957849263E-17   8   8   3   1
  0.8537169282034015E-17   8   8   3   2
  0.4883921411835838E+00   8   8   3   3
 -0.1582962472742219E-17   8   8   4   1
 -0.5059134010597528E-17   8   8   4   2
 -0.2081668171172169E-15   8   8   4   3
  0.4883921411835835E+00   8   8   4   4
 -0.9222767801017272E-16   8   8   5   1
 -0.4509093944010232E-15   8   8   5   2
 -0.6366435156834882E-15   8   8   5   3
  0.3339342691255354E-15   8   8   5   4
  0.4770704956602587E+00   8   8   5   5
  0.1488069207325861E-17   8   8   6   1
  0.1992204928869968E-16   8   8   6   2
  0.7476014985537768E-01   8   8   6   3
 -0.1075779953779809E+00   8   8   6   4
  0.2643718577388654E-14   8   8   6   5
  0.4195103940094566E+00   8   8   6   6
  0.2242846823916566E-17   8   8   7   1
 -0.2118251568195795E-16   8   8   7   2
 -0.1075779953779810E+00   8   8   7   3
 -0.7476014985537760E-01   8   8   7   4
 -0.1429412144204889E-14   8   8   7   5
  0.6938893903907228E-17   8   8   7   6
  0.4195103940094566E+00   8   8   7   7
  0.1106805596034422E-15   8   8   8   1
  0.5657233418148659E-15   8   8   8   2
  0.2661065812148422E-14   8   8   8   3
 -0.1188285581044113E-14   8   8   8   4
 -0.1500499359785279E+00   8   8   8   5
 -0.1471045507628332E-14   8   8   8   6
  0.5655198531684391E-15   8   8   8   7
  0.5187940194417063E+00   8   8   8   8
  0.2885688415907892E+00   9   1   1   1
 -0.4558975668317825E-01   9   1   2   1
  0.1131598263091588E-01   9   1   2   2
  0.6921893967301410E-17   9   1   3   1
  0.5820186062538816E-17   9   1   3   2
  0.6868752762539093E-02   9   1   3   3
  0.8749166582462259E-18   9   1   4   1
  0.6081139470675771E-18   9   1   4   2
  0.1496198998029996E-16   9   1   4   3
  0.6868752762539082E-02   9   1   4   4
 -0.6755516093528371E-16   9   1   5   1
 -0.7929098170503019E-16   9   1   5   2
 -0.2913793338554793E-17   9   1   5   3
  0.5590417451878382E-17   9   1   5   4
  0.3985036212095104E-02   9   1   5   5
 -0.1083514444216040E-17   9   1   6   1
  0.2909161435778889E-17   9   1   6   2
  0.4610364573588694E-02   9   1   6   3
 -0.6634199901254710E-02   9   1   6   4
  0.1178527761491743E-15   9   1   6   5
  0.9680420798785085E-02   9   1   6   6
  0.1185101439708202E-17   9   1   7   1
 -0.5183195112444624E-17   9   1   7   2
 -0.6634199901254787E-02   9   1   7   3
 -0.4610364573588772E-02   9   1   7   4
 -0.6720698216694521E-16   9   1   7   5
  0.3350184712980209E-16   9   1   7   6
  0.9680420798785377E-02   9   1   7   7
  0.3849306627610489E-17   9   1   8   1
  0.1017945129525270E-15   9   1   8   2
  0.1525743507230226E-15   9   1   8   3
 -0.7180128887285253E-16   9   1   8   4
 -0.7028826145938746E-02   9   1   8   5
 -0.7426784881525705E-16   9   1   8   6
  0.1946142899611480E-16   9   1   8   7
  0.1271230303044777E-01   9   1   8   8
  0.3822400340436385E-01   9   1   9   1
 -0.3170117014999494E+00   9   2   1   1
  0.1230549223632579E-01   9   2   2   1
 -0.1267740821858948E+00   9   2   2   2
  0.2527899177029140E-17   9   2   3   1
  0.7155244073486597E-17   9   2   3   2
 -0.1180080096997320E+00   9   2   3   3
  0.1262268246238626E-18   9   2   4   1
  0.2929036835673653E-18   9   2   4   2
  0.7285838599102590E-16   9   2   4   3