 &FCI NORB= 23,NELEC=  6,MS2= 0,
  ORBSYM=1,1,1,1,1,1,1,1,1,1,2,2,2,2,3,3,3,3,3,3,3,4,4,
  ISYM=1,
  OCC=  2,  0,  1,  0,  0,  0,  0,  0,
  CLOSED=  2,  0,  1,  0,  0,  0,  0,  0,
 /
  0.5756015387739636E+00   1   1   1   1
  0.3851329899850438E-01   2   1   1   1
  0.7329059710288385E-01   2   1   2   1
  0.4763159675571592E+00   2   2   1   1
 -0.5869668674423600E-01   2   2   2   1
  0.5590344261881929E+00   2   2   2   2
 -0.8710322289573982E-01   3   1   1   1
 -0.8280372836990995E-02   3   1   2   1
 -0.5990232179905691E-01   3   1   2   2
  0.3504417992186513E-01   3   1   3   1
 -0.2324090037767916E-01   3   2   1   1
  0.1984482665271664E-02   3   2   2   1
 -0.2725331197262105E-01   3   2   2   2
  0.1273490551437483E-01   3   2   3   1
  0.1118394376424681E-01   3   2   3   2
  0.3198372183584192E+00   3   3   1   1
  0.2563326904949665E-01   3   3   2   1
  0.2758529476021219E+00   3   3   2   2
 -0.1528296517810490E-01   3   3   3   1
  0.3466794989028910E-02   3   3   3   2
  0.2734733999201093E+00   3   3   3   3
 -0.1743798865256801E-01   4   1   1   1
 -0.1890933237229068E-01   4   1   2   1
  0.1378005064480503E-01   4   1   2   2
  0.3434269414654294E-02   4   1   3   1
  0.5120249183384037E-02   4   1   3   2
 -0.4312685381461753E-02   4   1   3   3
  0.2355288591173137E-01   4   1   4   1
 -0.9447150792767443E-01   4   2   1   1
  0.1930028188838134E-01   4   2   2   1
 -0.1086750737528408E+00   4   2   2   2
  0.2745346808125877E-01   4   2   3   1
  0.4689352514844621E-02   4   2   3   2
 -0.2351043704629535E-01   4   2   3   3
 -0.5644891892243784E-02   4   2   4   1
  0.7105898982056374E-01   4   2   4   2
  0.1827004134034166E-01   4   3   1   1
  0.2027144819537552E-01   4   3   2   1
 -0.7537963694241366E-02   4   3   2   2
 -0.4913938599331300E-02   4   3   3   1
  0.4686196423737812E-02   4   3   3   2
  0.1551261021357992E-01   4   3   3   3
  0.1479635039133853E-02   4   3   4   1
 -0.4276645431347599E-02   4   3   4   2
  0.1687416724278788E-01   4   3   4   3
  0.4095153559939511E+00   4   4   1   1
 -0.1560095939078808E-01   4   4   2   1
  0.4290201820880903E+00   4   4   2   2
 -0.4155467028812238E-01   4   4   3   1
 -0.1705857286482845E-01   4   4   3   2
  0.2649254901875271E+00   4   4   3   3
  0.4480679807025621E-02   4   4   4   1
 -0.5999327733593968E-01   4   4   4   2
  0.5368714893100868E-03   4   4   4   3
  0.3755640305828647E+00   4   4   4   4
  0.1736920403593994E-01   5   1   1   1
  0.7881453207379697E-02   5   1   2   1
  0.5246945319005299E-02   5   1   2   2
 -0.2484128909219581E-01   5   1   3   1
 -0.1193016524221876E-01   5   1   3   2
 -0.2972377419937559E-04   5   1   3   3
  0.9055422494601549E-02   5   1   4   1
  0.2570796310995401E-02   5   1   4   2
  0.5920822105630896E-02   5   1   4   3
  0.4302366683220465E-02   5   1   4   4
  0.5241071512361078E-01   5   1   5   1
  0.5836472183941852E-01   5   2   1   1
 -0.1180655575391666E-01   5   2   2   1
  0.7543373184463729E-01   5   2   2   2
 -0.2546146006728110E-01   5   2   3   1
 -0.8642156302146910E-02   5   2   3   2
  0.1349017752413968E-01   5   2   3   3
  0.1146233180571562E-01   5   2   4   1
 -0.4097443458023214E-01   5   2   4   2
  0.7830082062010510E-02   5   2   4   3
  0.4213758611498394E-01   5   2   4   4
  0.2001165661064187E-01   5   2   5   1
  0.4478618794988113E-01   5   2   5   2
 -0.8081465117146741E-01   5   3   1   1
 -0.1848661576458506E-01   5   3   2   1
 -0.4744744211298197E-01   5   3   2   2
  0.1997448027679943E-01   5   3   3   1
  0.4439044539029366E-02   5   3   3   2
 -0.2893412923276126E-01   5   3   3   3
  0.6464649245968979E-02   5   3   4   1
  0.2164841300553697E-01   5   3   4   2
 -0.5993746793104451E-02   5   3   4   3
 -0.3760030505823905E-01   5   3   4   4
 -0.6857819033858115E-02   5   3   5   1
 -0.1209620244915208E-01   5   3   5   2
  0.2468514846558081E-01   5   3   5   3
  0.7991978241803978E-02   5   4   1   1
  0.3866619860599740E-01   5   4   2   1
 -0.5626857826735088E-01   5   4   2   2
  0.1120198889176571E-01   5   4   3   1
  0.1324485586283695E-01   5   4   3   2
  0.1559602181450782E-01   5   4   3   3
 -0.8898366103340234E-02   5   4   4   1
  0.1961665550086332E-01   5   4   4   2
  0.9835367747411377E-02   5   4   4   3
 -0.2358193677237171E-01   5   4   4   4
 -0.1883125960436392E-01   5   4   5   1
 -0.2797530001452928E-01   5   4   5   2
 -0.5532209009878025E-02   5   4   5   3
  0.5158689195033216E-01   5   4   5   4
  0.4858215691381808E+00   5   5   1   1
  0.2677042573857377E-01   5   5   2   1
  0.4240455741218846E+00   5   5   2   2
 -0.5166110372832644E-01   5   5   3   1
 -0.1276480768027788E-01   5   5   3   2
  0.3012480136133687E+00   5   5   3   3
 -0.1940793644461912E-01   5   5   4   1
 -0.7732310784249051E-01   5   5   4   2
  0.8377572151876400E-02   5   5   4   3
  0.3750103823901304E+00   5   5   4   4
 -0.1335545619461720E-01   5   5   5   1
  0.3168081113046095E-01   5   5   5   2
 -0.6732470011970715E-01   5   5   5   3
  0.1708825967616606E-01   5   5   5   4
  0.4557105596174931E+00   5   5   5   5
 -0.7708012981709042E-01   6   1   1   1
  0.9970333872067777E-02   6   1   2   1
 -0.6685489176161491E-01   6   1   2   2
  0.3499334410340762E-01   6   1   3   1
  0.1155786292205543E-01   6   1   3   2
 -0.1527905299909661E-01   6   1   3   3
  0.5282964072734902E-02   6   1   4   1
  0.4239795696735810E-01   6   1   4   2
 -0.3427155101809742E-02   6   1   4   3
 -0.3866728094077327E-01   6   1   4   4
 -0.1787517352584250E-01   6   1   5   1
 -0.3434289087245141E-01   6   1   5   2
  0.1706137837824356E-01   6   1   5   3
  0.2627514330738675E-01   6   1   5   4
 -0.4410710593693784E-01   6   1   5   5
  0.5521570284078280E-01   6   1   6   1
  0.2990832158419219E-01   6   2   1   1
  0.6146562998751832E-03   6   2   2   1
  0.2811184800216894E-01   6   2   2   2
 -0.1891415749635954E-02   6   2   3   1
  0.6670811435803434E-02   6   2   3   2
  0.1246839521537631E-01   6   2   3   3
  0.1067653860823414E-01   6   2   4   1
 -0.2157266977077646E-01   6   2   4   2
  0.5876398316282143E-02   6   2   4   3
  0.2103820791574679E-01   6   2   4   4
 -0.1114917560543156E-01   6   2   5   1
  0.1278610378563084E-01   6   2   5   2
 -0.6002555924689734E-02   6   2   5   3
  0.4784943396587252E-02   6   2   5   4
  0.2610951872297131E-01   6   2   5   5
 -0.2875957449877309E-02   6   2   6   1
  0.2278532149537763E-01   6   2   6   2
  0.8865256697298807E-01   6   3   1   1
  0.1639058212808559E-02   6   3   2   1
  0.7478680753258937E-01   6   3   2   2
 -0.2500112275709648E-01   6   3   3   1
 -0.1061950948263907E-01   6   3   3   2
  0.1862005009740783E-01   6   3   3   3
 -0.5203656793249594E-02   6   3   4   1
 -0.2279736530115650E-01   6   3   4   2
  0.8337126436539083E-03   6   3   4   3
  0.5681380253743251E-01   6   3   4   4
  0.1001100087179378E-01   6   3   5   1
  0.1637351801886502E-01   6   3   5   2
 -0.1944176680377684E-01   6   3   5   3
 -0.9643980431516881E-02   6   3   5   4
  0.6626142811624328E-01   6   3   5   5
 -0.2525006008485559E-01   6   3   6   1
  0.3112163421416569E-02   6   3   6   2
  0.2983208097045292E-01   6   3   6   3
  0.2199760117961167E-01   6   4   1   1
  0.3725039093314957E-01   6   4   2   1
 -0.3340154309928110E-01   6   4   2   2
 -0.7495820766214786E-02   6   4   3   1
  0.2066605813674210E-02   6   4   3   2
  0.1348979078354365E-01   6   4   3   3
 -0.2462281867195611E-02   6   4   4   1
  0.1123781055557794E-01   6   4   4   2
  0.1504339458455635E-01   6   4   4   3
 -0.8642189389931162E-02   6   4   4   4
  0.1486297364321013E-01   6   4   5   1
 -0.1241834769521857E-02   6   4   5   2
 -0.9161464561561940E-02   6   4   5   3
  0.2232422385880562E-01   6   4   5   4
  0.7355445142376949E-02   6   4   5   5
  0.5079892494809689E-02   6   4   6   1
  0.7242542879257879E-03   6   4   6   2
  0.1707072437285802E-02   6   4   6   3
  0.3005845127403502E-01   6   4   6   4
 -0.2346318592856956E-01   6   5   1   1
 -0.3123064508403732E-01   6   5   2   1
  0.2146350540839288E-01   6   5   2   2
  0.5756329386134351E-02   6   5   3   1
 -0.1757346340297672E-02   6   5   3   2
 -0.1824830787973161E-01   6   5   3   3
  0.1437166754941499E-01   6   5   4   1
  0.1926029415403187E-02   6   5   4   2
 -0.9742119153571989E-02   6   5   4   3
  0.9441208548316118E-02   6   5   4   4
  0.1013904827920381E-02   6   5   5   1
  0.2649183763096151E-02   6   5   5   2
  0.1427160847752896E-01   6   5   5   3
 -0.1403445404139361E-01   6   5   5   4
 -0.2216450700445963E-01   6   5   5   5
  0.7964929623299789E-02   6   5   6   1
 -0.7012110515917519E-03   6   5   6   2
 -0.3517290633066210E-02   6   5   6   3
 -0.1115781284732717E-01   6   5   6   4
  0.2754153715372715E-01   6   5   6   5
  0.4443078864207523E+00   6   6   1   1
  0.9927223264456882E-02   6   6   2   1
  0.4026965989123084E+00   6   6   2   2
 -0.5468309465291754E-01   6   6   3   1
 -0.1302551280853470E-01   6   6   3   2
  0.2845917898623029E+00   6   6   3   3
  0.5787949047003221E-03   6   6   4   1
 -0.6445861970994679E-01   6   6   4   2
  0.1246971746567022E-01   6   6   4   3
  0.3534586734628116E+00   6   6   4   4
  0.1820314512281770E-01   6   6   5   1
  0.4299256720571083E-01   6   6   5   2
 -0.5078961964159223E-01   6   6   5   3
 -0.3883947016361688E-02   6   6   5   4
  0.3888299120904942E+00   6   6   5   5
 -0.4916123714793895E-01   6   6   6   1
  0.2087687049198583E-01   6   6   6   2
  0.5996430016053766E-01   6   6   6   3
  0.1297567126117327E-01   6   6   6   4
 -0.5119562061377092E-02   6   6   6   5
  0.3783128431304204E+00   6   6   6   6
  0.2145044841922558E-01   7   1   1   1
  0.2692370660594488E-01   7   1   2   1
  0.2197395205669221E-01   7   1   2   2
 -0.7495768473187395E-02   7   1   3   1
 -0.5201944688025040E-02   7   1   3   2
  0.9649399839495412E-02   7   1   3   3
  0.6167168507133711E-03   7   1   4   1
 -0.7248698688805597E-03   7   1   4   2
  0.1008841764036863E-01   7   1   4   3
  0.1478424519179863E-01   7   1   4   4
  0.1207840362328380E-01   7   1   5   1
  0.1138513584314329E-01   7   1   5   2
 -0.8193216528955820E-02   7   1   5   3
 -0.3566228293196708E-02   7   1   5   4
  0.1224280129665369E-01   7   1   5   5
  0.4536948737239709E-02   7   1   6   1
  0.5677677868661773E-02   7   1   6   2
  0.3272863620874450E-02   7   1   6   3
  0.8742171684547483E-02   7   1   6   4
 -0.1006391893077677E-01   7   1   6   5
  0.1002473162301346E-01   7   1   6   6
  0.4987171143843659E-01   7   1   7   1
  0.3732871052100607E-01   7   2   1   1
  0.6155869939267311E-01   7   2   2   1
 -0.6575255793393732E-01   7   2   2   2
 -0.9580578645306120E-02   7   2   3   1
  0.5335312382487384E-02   7   2   3   2
  0.2172054939977764E-01   7   2   3   3
 -0.1138940111722795E-01   7   2   4   1
  0.1943054891040053E-01   7   2   4   2
  0.1676497929410976E-01   7   2   4   3
 -0.2257860204704805E-01   7   2   4   4
  0.1204923042552031E-01   7   2   5   1
 -0.1452402801313087E-01   7   2   5   2
 -0.1487831057872360E-01   7   2   5   3
  0.3933763381683833E-01   7   2   5   4
  0.1758782026250284E-01   7   2   5   5
  0.8345011592355414E-02   7   2   6   1
  0.2532360041444526E-02   7   2   6   2
  0.1745057108679574E-02   7   2   6   3
  0.3531634803925116E-01   7   2   6   4
 -0.2345255332043053E-01   7   2   6   5
  0.1365141573903395E-01   7   2   6   6
  0.1077692087982290E-01   7   2   7   1
  0.7865800743344448E-01   7   2   7   2
 -0.1101231949880447E-01   7   3   1   1
 -0.1227841417027771E-01   7   3   2   1
  0.4906764466164499E-02   7   3   2   2
  0.3338065971322725E-02   7   3   3   1
  0.2363271705438680E-02   7   3   3   2
 -0.5176753087024504E-02   7   3   3   3
  0.4662398806412317E-02   7   3   4   1
 -0.5231251804722805E-04   7   3   4   2
 -0.2445081555739047E-02   7   3   4   3
  0.1417714486775652E-02   7   3   4   4
 -0.3309355058852393E-02   7   3   5   1
 -0.2200573365029330E-02   7   3   5   2
  0.4477103177959969E-02   7   3   5   3
 -0.4377997818726775E-02   7   3   5   4
 -0.7812034972960483E-02   7   3   5   5
  0.6864184898552148E-03   7   3   6   1
  0.1074071998980051E-02   7   3   6   2
 -0.1491860300475387E-02   7   3   6   3
 -0.5733926235666835E-02   7   3   6   4
  0.4939964289392394E-02   7   3   6   5
 -0.2776083843363764E-02   7   3   6   6
 -0.5472052947482735E-02   7   3   7   1
 -0.1063890500033307E-01   7   3   7   2
  0.6542550799773032E-02   7   3   7   3
  0.1726654753587416E-01   7   4   1   1
 -0.6623616797312026E-02   7   4   2   1
  0.2926162109422865E-01   7   4   2   2
  0.8650201546350593E-04   7   4   3   1
  0.1904892579195302E-02   7   4   3   2
  0.7963601003430305E-02   7   4   3   3
  0.3996492069429715E-02   7   4   4   1
 -0.1876726819947284E-01   7   4   4   2
  0.2306897627839603E-02   7   4   4   3
  0.1500810284463683E-01   7   4   4   4
 -0.1064336121855584E-01   7   4   5   1
  0.1339178978586527E-01   7   4   5   2
 -0.2864328909697990E-02   7   4   5   3
 -0.4194645387968762E-02   7   4   5   4
  0.1746054425882801E-01   7   4   5   5
 -0.5611933328182198E-02   7   4   6   1
  0.1178446334685785E-01   7   4   6   2
  0.1985873882981104E-02   7   4   6   3
 -0.4548347145992788E-02   7   4   6   4
  0.9519440914688426E-03   7   4   6   5
  0.1114148617626673E-01   7   4   6   6
  0.1044025233452587E-02   7   4   7   1
 -0.9700645800849530E-02   7   4   7   2
 -0.7762255068158256E-03   7   4   7   3
  0.1596146306764927E-01   7   4   7   4
  0.1328175343052593E-01   7   5   1   1
  0.1916478155855226E-01   7   5   2   1
 -0.1926088811987223E-01   7   5   2   2
 -0.3516147971871327E-02   7   5   3   1
 -0.3680375611549783E-02   7   5   3   2
  0.6237649714417882E-02   7   5   3   3
 -0.1355582864732823E-01   7   5   4   1
  0.1225305652637843E-01   7   5   4   2
  0.1172998802023970E-02   7   5   4   3
 -0.7066378345248926E-02   7   5   4   4
 -0.4974468720447909E-04   7   5   5   1
 -0.3575717232732477E-02   7   5   5   2
 -0.4797425013015257E-02   7   5   5   3
  0.8964941379563201E-02   7   5   5   4
  0.7112863631607387E-02   7   5   5   5
 -0.3152029056621691E-02   7   5   6   1
 -0.6217274027635340E-02   7   5   6   2
  0.2081736047592278E-02   7   5   6   3
  0.7663527534759133E-02   7   5   6   4
 -0.9591959296035964E-02   7   5   6   5
 -0.2115016664331204E-02   7   5   6   6
 -0.9058460393203778E-03   7   5   7   1
  0.1786439675110144E-01   7   5   7   2
 -0.8456496539979499E-02   7   5   7   3
  0.3073211846549248E-03   7   5   7   4
  0.2476590508231954E-01   7   5   7   5
  0.1492275466885434E-01   7   6   1   1
  0.1089756863779862E-01   7   6   2   1
  0.3676763653911510E-02   7   6   2   2
 -0.2763802936016392E-03   7   6   3   1
  0.1757950494843959E-02   7   6   3   2
  0.6854120381132272E-02   7   6   3   3
 -0.2414676410962754E-02   7   6   4   1
  0.7022869587889312E-02   7   6   4   2
  0.2852235480760745E-02   7   6   4   3
  0.6440210803513404E-02   7   6   4   4
 -0.5519305233766529E-02   7   6   5   1
 -0.3875991123983716E-02   7   6   5   2
 -0.2089853219533887E-02   7   6   5   3
  0.6028062334277932E-02   7   6   5   4
  0.8504163160439894E-02   7   6   5   5
  0.1944435003110407E-02   7   6   6   1
  0.5127630153335391E-02   7   6   6   2
  0.2407351147831843E-02   7   6   6   3
  0.2551138359747806E-02   7   6   6   4
 -0.6335807082845507E-02   7   6   6   5
  0.6248509568755520E-02   7   6   6   6
  0.1052265647266343E-01   7   6   7   1
  0.9499868492334616E-02   7   6   7   2
  0.1724359905075686E-02   7   6   7   3
  0.9490834260032655E-03   7   6   7   4
  0.3498895807916519E-02   7   6   7   5
  0.1472149462093830E-01   7   6   7   6
  0.4994603660250259E+00   7   7   1   1
  0.5583766734730277E-02   7   7   2   1
  0.4789198521032868E+00   7   7   2   2
 -0.5664329426338494E-01   7   7   3   1
 -0.1989230619833349E-01   7   7   3   2
  0.2962913480582206E+00   7   7   3   3
 -0.4133670257576383E-02   7   7   4   1
 -0.7536099109503663E-01   7   7   4   2
  0.5236867556567826E-02   7   7   4   3
  0.3953756723634797E+00   7   7   4   4
  0.3022275632970362E-03   7   7   5   1
  0.4847130920009896E-01   7   7   5   2
 -0.5875548670990238E-01   7   7   5   3
 -0.2373376718587228E-02   7   7   5   4
  0.4389608964718939E+00   7   7   5   5
 -0.4205041512901453E-01   7   7   6   1
  0.2715300764659145E-01   7   7   6   2
  0.6884942728115728E-01   7   7   6   3
  0.2672674928197338E-02   7   7   6   4
 -0.1120893710035431E-02   7   7   6   5
  0.4008352165239487E+00   7   7   6   6
  0.2516192911807614E-01   7   7   7   1
 -0.1125961658862085E-02   7   7   7   2
 -0.6183529949050422E-02   7   7   7   3
  0.2319020587204354E-01   7   7   7   4
  0.5135460499127942E-02   7   7   7   5
  0.1404761844037444E-01   7   7   7   6
  0.4926348164013181E+00   7   7   7   7
 -0.6720778086544546E-02   8   1   1   1
 -0.2963097416528976E-02   8   1   2   1
 -0.2734624190705072E-02   8   1   2   2
  0.1929818468832585E-02   8   1   3   1
  0.4835276630533817E-02   8   1   3   2
  0.1562467206836004E-02   8   1   3   3
  0.6736819788403660E-02   8   1   4   1
 -0.5735093651011812E-02   8   1   4   2
 -0.2329001714185324E-02   8   1   4   3
 -0.6408265332876060E-03   8   1   4   4
  0.3764008460302291E-02   8   1   5   1
 -0.8874313689289830E-02   8   1   5   2
 -0.4735588218940354E-02   8   1   5   3
  0.5156149485394440E-02   8   1   5   4
  0.7203178445070763E-02   8   1   5   5
  0.5021481633268489E-02   8   1   6   1
  0.1865006469078698E-02   8   1   6   2
 -0.1833137045458874E-02   8   1   6   3
 -0.3120166223448385E-02   8   1   6   4
 -0.3644563110847524E-02   8   1   6   5
  0.8400588802656833E-03   8   1   6   6
 -0.1535916000181320E-02   8   1   7   1
 -0.9145570089464431E-03   8   1   7   2
  0.4677135727991555E-02   8   1   7   3
 -0.6453771010975571E-02   8   1   7   4
 -0.1514663221183159E-01   8   1   7   5
 -0.3272518709693724E-02   8   1   7   6
 -0.1127944221872538E-01   8   1   7   7
  0.3046958705511927E-01   8   1   8   1
 -0.1324869904267507E-01   8   2   1   1
 -0.4508579743925994E-02   8   2   2   1
 -0.4329030743477710E-02   8   2   2   2
  0.1044151418626974E-01   8   2   3   1
  0.1257383553720192E-02   8   2   3   2
 -0.4272207469087284E-03   8   2   3   3
 -0.7910398868473716E-02   8   2   4   1
  0.5595705365279634E-02   8   2   4   2
 -0.4164295716509213E-02   8   2   4   3
 -0.6979904513745332E-02   8   2   4   4
 -0.1916892712284240E-01   8   2   5   1
 -0.4368635042408621E-02   8   2   5   2
  0.3239871662658664E-02   8   2   5   3
  0.1100180452233827E-02   8   2   5   4
  0.3605522669645413E-03   8   2   5   5
  0.5147348757605028E-02   8   2   6   1
 -0.8225871218626134E-03   8   2   6   2
 -0.3373508677658996E-02   8   2   6   3
 -0.7309822135851741E-02   8   2   6   4
 -0.2679859858245114E-02   8   2   6   5
 -0.1158842574702854E-01   8   2   6   6
 -0.4077693046958532E-02   8   2   7   1
 -0.1052524264094855E-01   8   2   7   2
  0.1137123930496328E-02   8   2   7   3
  0.3054002124359667E-02   8   2   7   4
  0.2374402296938088E-02   8   2   7   5
  0.2341151376078729E-02   8   2   7   6
 -0.3750448660808032E-02   8   2   7   7
 -0.1088850824241110E-01   8   2   8   1
  0.2349213628183536E-01   8   2   8   2
 -0.2469455545677839E-02   8   3   1   1
  0.1127515692072014E-01   8   3   2   1
 -0.1284791553831465E-01   8   3   2   2
  0.5119083619378567E-02   8   3   3   1
  0.2609748339323488E-02   8   3   3   2
  0.6023872320913676E-02   8   3   3   3
 -0.7302677444541239E-02   8   3   4   1
  0.2697038407887148E-02   8   3   4   2
  0.1253464361086228E-02   8   3   4   3
 -0.8546743762601219E-02   8   3   4   4
 -0.1091773691738940E-01   8   3   5   1
 -0.5601248277690360E-02   8   3   5   2
 -0.2477747770062429E-02   8   3   5   3
  0.6385493835135229E-02   8   3   5   4
  0.4160170881411759E-02   8   3   5   5
  0.3650278794693811E-02   8   3   6   1
  0.1150563095951472E-02   8   3   6   2
 -0.3527661364606346E-02   8   3   6   3
  0.1459472942119426E-02   8   3   6   4
 -0.7776814226210398E-02   8   3   6   5
 -0.5616455639685013E-02   8   3   6   6
  0.5884453995592183E-02   8   3   7   1
  0.6421600556118642E-02   8   3   7   2
 -0.1710094316224556E-02   8   3   7   3
  0.1676465408139443E-02   8   3   7   4
  0.5122454617965209E-02   8   3   7   5
  0.3687013064994165E-02   8   3   7   6
 -0.3385715661012332E-02   8   3   7   7
 -0.3907666070659854E-02   8   3   8   1
  0.6044291646779442E-02   8   3   8   2
  0.9843034916754548E-02   8   3   8   3
  0.2782462497935030E-01   8   4   1   1
 -0.1984550184291481E-01   8   4   2   1
  0.3908523701646064E-01   8   4   2   2
 -0.1257827427471308E-01   8   4   3   1
 -0.6087518934660235E-02   8   4   3   2
  0.8257590940949527E-03   8   4   3   3
  0.2261886516892318E-02   8   4   4   1
 -0.1718978879227871E-01   8   4   4   2
 -0.7116223815588425E-02   8   4   4   3
  0.1780870674781464E-01   8   4   4   4
  0.9478215855902316E-02   8   4   5   1
  0.9575005216541803E-02   8   4   5   2
 -0.3648881053144438E-02   8   4   5   3
 -0.1400381321631774E-01   8   4   5   4
  0.1403421719551141E-01   8   4   5   5
 -0.1795113190767729E-01   8   4   6   1
 -0.3151972082805017E-02   8   4   6   2
  0.9289999610573002E-02   8   4   6   3
 -0.8873678178417291E-02   8   4   6   4
  0.6987766526253816E-02   8   4   6   5
  0.2031552748832942E-01   8   4   6   6
 -0.1300515411893374E-01   8   4   7   1
 -0.1067502811670303E-01   8   4   7   2
  0.2265583408471123E-02   8   4   7   3
 -0.7630208579700176E-05   8   4   7   4
 -0.2925305297411728E-02   8   4   7   5
 -0.5590414479348991E-02   8   4   7   6
  0.2416698298644052E-01   8   4   7   7
  0.3627489878890465E-02   8   4   8   1
 -0.6864732058973638E-02   8   4   8   2
 -0.6891877042429736E-02   8   4   8   3
  0.2025872202035114E-01   8   4   8   4
  0.1824558031721719E-01   8   5   1   1
 -0.3296481103409828E-01   8   5   2   1
  0.4183025249728207E-01   8   5   2   2
 -0.1621276500240827E-01   8   5   3   1
 -0.8353555478459139E-02   8   5   3   2
 -0.9827943905581511E-02   8   5   3   3
  0.1044860476781758E-01   8   5   4   1
 -0.1434548647850489E-01   8   5   4   2
 -0.7850545766576230E-02   8   5   4   3
  0.1812035041451294E-01   8   5   4   4
  0.2035036026291452E-01   8   5   5   1
  0.1773623236512322E-01   8   5   5   2
  0.3034416656193355E-02   8   5   5   3
 -0.2348659787870525E-01   8   5   5   4
 -0.4240341428592520E-02   8   5   5   5
 -0.2194531776922796E-01   8   5   6   1
 -0.5181581410572344E-02   8   5   6   2
  0.9032934184143027E-02   8   5   6   3
 -0.8464344443108646E-02   8   5   6   4
  0.1897044137483823E-01   8   5   6   5
  0.1817098059172092E-01   8   5   6   6
 -0.2136679796703988E-01   8   5   7   1
 -0.1894852068080323E-01   8   5   7   2
  0.4701612640481377E-02   8   5   7   3
 -0.2812524410280778E-03   8   5   7   4
 -0.5099417886159984E-02   8   5   7   5
 -0.8462128257028335E-02   8   5   7   6
  0.1863239393660202E-01   8   5   7   7
 -0.2004823562879468E-02   8   5   8   1
 -0.8079847964692181E-02   8   5   8   2
 -0.1478564987252988E-01   8   5   8   3
  0.2313306960379341E-01   8   5   8   4
  0.4323382980925543E-01   8   5   8   5
  0.1457131919258343E-01   8   6   1   1
  0.4646531572377978E-02   8   6   2   1
  0.3783520955380620E-02   8   6   2   2
 -0.4304967559825446E-03   8   6   3   1
  0.8697923074098661E-03   8   6   3   2
  0.4445566019237031E-02   8   6   3   3
 -0.7474212460327167E-02   8   6   4   1
 -0.3617734823639636E-02   8   6   4   2
  0.1360531914404890E-03   8   6   4   3
  0.2476558052483317E-02   8   6   4   4
 -0.1014014196810134E-01   8   6   5   1
 -0.4913112588632910E-02   8   6   5   2
 -0.3975087129840238E-02   8   6   5   3
  0.6215336018831700E-02   8   6   5   4
  0.1783271656864499E-01   8   6   5   5
 -0.9268063257118044E-03   8   6   6   1
 -0.3570413033470513E-03   8   6   6   2
  0.2404826540853482E-02   8   6   6   3
  0.3598270877557888E-03   8   6   6   4
 -0.2644295751864912E-02   8   6   6   5
  0.7197086810250765E-02   8   6   6   6
 -0.2378368740291015E-02   8   6   7   1
  0.4029400909053402E-02   8   6   7   2
  0.4204086550900635E-03   8   6   7   3
 -0.2889579269607064E-03   8   6   7   4
  0.7261068130437025E-03   8   6   7   5
  0.7389831076416054E-03   8   6   7   6
  0.1070477361508508E-01   8   6   7   7
 -0.2313320045923385E-02   8   6   8   1
  0.4548924624639839E-02   8   6   8   2
  0.5805031664946708E-02   8   6   8   3
 -0.1144328007374802E-02   8   6   8   4
 -0.4319113540205477E-02   8   6   8   5
  0.1186632365513815E-01   8   6   8   6
 -0.1189819946435963E-01   8   7   1   1
  0.1535745818735352E-02   8   7   2   1
 -0.2252684195565679E-01   8   7   2   2
  0.1093690234812559E-01   8   7   3   1
  0.4795353847860476E-02   8   7   3   2
 -0.1810520890263483E-03   8   7   3   3
 -0.1063519695414296E-01   8   7   4   1
  0.4803711837985971E-02   8   7   4   2
 -0.2387908792328888E-03   8   7   4   3
 -0.1267853920668590E-01   8   7   4   4
 -0.2398116822703008E-01   8   7   5   1
 -0.8868181995303892E-02   8   7   5   2
  0.4663383981762043E-02   8   7   5   3
  0.7816210405231627E-02   8   7   5   4
 -0.3027833267949860E-02   8   7   5   5
  0.2986730292976397E-02   8   7   6   1
  0.1540750541967034E-02   8   7   6   2
 -0.3540335944371420E-02   8   7   6   3
 -0.3021332023315891E-02   8   7   6   4
 -0.4861711346311970E-02   8   7   6   5
 -0.1280710367828160E-01   8   7   6   6
 -0.1343569837329400E-01   8   7   7   1
  0.2707876842805592E-02   8   7   7   2
 -0.2289280642555572E-05   8   7   7   3
  0.5268711349898843E-02   8   7   7   4
  0.8165829346778310E-02   8   7   7   5
  0.3270554861261772E-02   8   7   7   6
 -0.1215858169291827E-01   8   7   7   7
 -0.1370695764334445E-01   8   7   8   1
  0.1489279225854967E-01   8   7   8   2
  0.7135442309517586E-02   8   7   8   3
 -0.5433794165501302E-02   8   7   8   4
 -0.9088833355662978E-02   8   7   8   5
  0.5986518731894687E-02   8   7   8   6
  0.2811996278439555E-01   8   7   8   7
  0.4881365765172003E+00   8   8   1   1
 -0.1380366760604433E-01   8   8   2   1
  0.4583497261099895E+00   8   8   2   2
 -0.5636499466312722E-01   8   8   3   1
 -0.1169293859590770E-01   8   8   3   2
  0.2938899312706655E+00   8   8   3   3
  0.1649414230278631E-02   8   8   4   1
 -0.8015445502850035E-01   8   8   4   2
  0.6426710250446166E-03   8   8   4   3
  0.3844182877457591E+00   8   8   4   4
  0.1533696813498242E-02   8   8   5   1
  0.3761378907593496E-01   8   8   5   2
 -0.5791013842785919E-01   8   8   5   3
  0.4083609695498924E-02   8   8   5   4
  0.4353455449311727E+00   8   8   5   5
 -0.5112837125666883E-01   8   8   6   1
  0.2562154419995377E-01   8   8   6   2
  0.6850675140006102E-01   8   8   6   3
 -0.1689685812218622E-02   8   8   6   4
  0.9195732886306818E-03   8   8   6   5
  0.4012860255905291E+00   8   8   6   6
 -0.1123559475716459E-01   8   8   7   1
  0.6834906294623577E-02   8   8   7   2
  0.1517184707733849E-02   8   8   7   3
  0.1405066638764504E-01   8   8   7   4
 -0.4987386434299468E-02   8   8   7   5
  0.6795349903422898E-02   8   8   7   6
  0.4541100767366957E+00   8   8   7   7
  0.1024689046287178E-01   8   8   8   1
 -0.1071294685586455E-01   8   8   8   2
 -0.1121870736398772E-01   8   8   8   3
  0.3880875767588388E-01   8   8   8   4
  0.3663389459085342E-01   8   8   8   5
  0.1142066279937726E-01   8   8   8   6
 -0.1204345286880119E-01   8   8   8   7
  0.4897085270240651E+00   8   8   8   8
  0.1082485975450466E-02   9   1   1   1
  0.5340956157700628E-02   9   1   2   1
  0.2469628536903991E-02   9   1   2   2
 -0.3755504228889821E-02   9   1   3   1
 -0.5669950706554489E-02   9   1   3   2
  0.2798497016758389E-02   9   1   3   3
 -0.3226482299235008E-02   9   1   4   1
 -0.9375031824309979E-03   9   1   4   2
 -0.5548994643086360E-03   9   1   4   3
  0.1569938126883627E-02   9   1   4   4
  0.1019437948910338E-01   9   1   5   1
  0.5843543311974244E-02   9   1   5   2
 -0.6188495241244148E-02   9   1   5   3
 -0.2357850994666217E-02   9   1   5   4
  0.7264666795298474E-02   9   1   5   5
 -0.2718296391654289E-02   9   1   6   1
 -0.6783216174704294E-02   9   1   6   2
  0.7746097160467162E-03   9   1   6   3
  0.2755347595882935E-02   9   1   6   4
 -0.3802143395441460E-02   9   1   6   5
 -0.1603592876632703E-02   9   1   6   6
  0.4221508254414180E-02   9   1   7   1
 -0.7985702364634655E-02   9   1   7   2
 -0.6622693621850551E-02   9   1   7   3
  0.1244357153913522E-02   9   1   7   4
  0.9479769791152672E-02   9   1   7   5
 -0.7794089374724466E-02   9   1   7   6
  0.2554742821321185E-02   9   1   7   7
  0.1007872273840354E-02   9   1   8   1
 -0.3311761679623754E-02   9   1   8   2
 -0.3445443798986286E-03   9   1   8   3
 -0.6897999549239126E-04   9   1   8   4
 -0.1193099978481677E-02   9   1   8   5
 -0.3641323554190938E-02   9   1   8   6
 -0.7749925877760465E-02   9   1   8   7
 -0.8043267069076040E-02   9   1   8   8
  0.2270183320835594E-01   9   1   9   1
  0.1967392881895573E-01   9   2   1   1
  0.1426854774363448E-01   9   2   2   1
 -0.2581728393136158E-01   9   2   2   2
 -0.1121683675512773E-01   9   2   3   1
 -0.1647100425442832E-02   9   2   3   2
  0.6121317280278897E-02   9   2   3   3
 -0.5981274287473658E-02   9   2   4   1
  0.5854565445904819E-03   9   2   4   2
  0.2537076605663092E-02   9   2   4   3
 -0.7882571759454910E-02   9   2   4   4
  0.1131379199131206E-01   9   2   5   1
  0.2273460743863309E-02   9   2   5   2
 -0.7569559204797674E-02   9   2   5   3
  0.7293582703973922E-02   9   2   5   4
  0.9423286697135767E-02   9   2   5   5
 -0.1239905576152409E-01   9   2   6   1
 -0.2547506490547483E-02   9   2   6   2
  0.5213624129727897E-02   9   2   6   3
  0.1081089293707175E-01   9   2   6   4
 -0.6889685365428873E-02   9   2   6   5
  0.9173544853847670E-02   9   2   6   6
 -0.1415219423683828E-01   9   2   7   1
  0.3073293509456893E-01   9   2   7   2
 -0.6714074641906155E-02   9   2   7   3