 &FCI NORB= 23,NELEC=  6,MS2= 0,
  ORBSYM=1,1,1,1,1,1,1,1,1,1,1,1,1,1,1,1,1,1,1,1,1,1,1,
  ISYM=1,
  OCC=  3,  0,  0,  0,  0,  0,  0,  0,
  CLOSED=  3,  0,  0,  0,  0,  0,  0,  0,
  FOCK=    -11.290632548614,     -0.889104602113,     -0.566074862513,     -0.385924653132,      0.063505232518,
       0.196769988613,      0.261582070606,      0.591768141957,      0.690926226990,      0.738851565868,      0.776274206442,      0.869822512608,      1.010544836451,      1.211169553388,      1.220045212795,      1.296590848557,      1.749769212661,      1.751418924262,      1.948488161966,      2.017914252806,      2.025689740719,      2.329064862244,      2.678209444943,
 /
  0.5756015387739650E+00   1   1   1   1
 -0.5428666720146453E-15   2   1   1   1
  0.1450050508524129E+00   2   1   2   1
  0.5335061263238406E+00   2   2   1   1
  0.3400058012914542E-15   2   2   2   1
  0.5300847151833632E+00   2   2   2   2
  0.3851329899850403E-01   3   1   1   1
 -0.2638948087829718E-15   3   1   2   1
  0.2723537959952826E-01   3   1   2   2
  0.7329059710288394E-01   3   1   3   1
 -0.5356926422934701E-17   3   2   1   1
  0.1902881455985624E-01   3   2   2   1
  0.3484043174449481E-15   3   2   2   2
 -0.1151151656636484E-15   3   2   3   1
  0.2823822291098393E-01   3   2   3   2
  0.4763159675571594E+00   3   3   1   1
 -0.1595945597898663E-15   3   3   2   1
  0.4433899897988677E+00   3   3   2   2
 -0.5869668674423630E-01   3   3   3   1
  0.2879640970121500E-15   3   3   3   2
  0.5590344261881928E+00   3   3   3   3
 -0.1747425111067802E-15   4   1   1   1
 -0.1539960509618930E-16   4   1   2   1
  0.1262420654642022E-16   4   1   2   2
  0.7432779497240582E-16   4   1   3   1
 -0.3444026009064875E-16   4   1   3   2
 -0.6169131334086241E-16   4   1   3   3
  0.6964642934784855E-01   4   1   4   1
  0.5642526223497883E-16   4   2   1   1
  0.1304010581015482E-15   4   2   2   1
  0.3189176148774853E-16   4   2   2   2
 -0.4019753332240540E-16   4   2   3   1
  0.3745761409268001E-16   4   2   3   2
  0.8431085850381455E-16   4   2   3   3
 -0.3922101358966312E-16   4   2   4   1
  0.1906972011763652E-01   4   2   4   2
  0.4569268601286587E-16   4   3   1   1
 -0.4401802947700917E-16   4   3   2   1
  0.7700903015226748E-17   4   3   2   2
  0.4214864131872179E-16   4   3   3   1
  0.3551326864770798E-17   4   3   3   2
 -0.1135889584641714E-15   4   3   3   3
 -0.2564877651553864E-01   4   3   4   1
  0.3231705979483013E-16   4   3   4   2
  0.3508150883681210E-01   4   3   4   3
  0.4637677005983413E+00   4   4   1   1
  0.4163336342344337E-16   4   4   2   1
  0.4230305762887415E+00   4   4   2   2
 -0.1953787637430326E-01   4   4   3   1
  0.1838806884535416E-15   4   4   3   2
  0.4451900548843823E+00   4   4   3   3
 -0.7281881165240291E-16   4   4   4   1
  0.9412450385541727E-16   4   4   4   2
 -0.7150866137902271E-16   4   4   4   3
  0.4623537209921364E+00   4   4   4   4
 -0.8710322289573996E-01   5   1   1   1
  0.2906746024433637E-14   5   1   2   1
 -0.6174795973309562E-01   5   1   2   2
 -0.8280372836991255E-02   5   1   3   1
 -0.1127136578515930E-14   5   1   3   2
 -0.5990232179905675E-01   5   1   3   3
 -0.8248508600740437E-17   5   1   4   1
 -0.4887844091419418E-16   5   1   4   2
  0.4332024285958030E-16   5   1   4   3
 -0.6357718682836555E-01   5   1   4   4
  0.3504417992186411E-01   5   1   5   1
  0.9006668208592137E-14   5   2   1   1
  0.6344452618497072E-02   5   2   2   1
  0.8250930468681136E-14   5   2   2   2
 -0.2432272048699669E-14   5   2   3   1
  0.4986792090672113E-02   5   2   3   2
  0.9985556390619753E-14   5   2   3   3
 -0.5424611534472747E-16   5   2   4   1
  0.1671987370488689E-16   5   2   4   2
 -0.1905741959569074E-17   5   2   4   3
  0.7837602320531199E-14   5   2   4   4
 -0.4843239524709997E-14   5   2   5   1
  0.1893615010138152E-01   5   2   5   2
 -0.2324090037768116E-01   5   3   1   1
 -0.3795249704785508E-14   5   3   2   1
 -0.1276075660485465E-01   5   3   2   2
  0.1984482665270816E-02   5   3   3   1
  0.7406727141334724E-15   5   3   3   2
 -0.2725331197262207E-01   5   3   3   3
  0.6099095513800464E-16   5   3   4   1
 -0.1761586173426584E-16   5   3   4   2
 -0.3094171251982810E-16   5   3   4   3
 -0.1761927888090084E-01   5   3   4   4
  0.1273490551437532E-01   5   3   5   1
 -0.2952499356112526E-14   5   3   5   2
  0.1118394376424602E-01   5   3   5   3
 -0.1828634774078346E-15   5   4   1   1
 -0.8854241321562343E-16   5   4   2   1
 -0.1581578228936173E-15   5   4   2   2
  0.5895045875868381E-16   5   4   3   1
 -0.1614393708422684E-16   5   4   3   2
 -0.2492482043142618E-15   5   4   3   3
 -0.1343169274448565E-01   5   4   4   1
  0.6244038895956636E-15   5   4   4   2
  0.2299492038934410E-02   5   4   4   3
 -0.2488974751654521E-15   5   4   4   4
  0.8891404457789276E-16   5   4   5   1
 -0.2786235346598228E-16   5   4   5   2
  0.2998722374765943E-16   5   4   5   3
  0.9324742909082136E-02   5   4   5   4
  0.3198372183584138E+00   5   5   1   1
 -0.1515714637134735E-13   5   5   2   1
  0.3123059219609171E+00   5   5   2   2
  0.2563326904949813E-01   5   5   3   1
 -0.3801646497603173E-14   5   5   3   2
  0.2758529476021144E+00   5   5   3   3
  0.5763121713715075E-16   5   5   4   1
 -0.1276104668307092E-16   5   5   4   2
  0.1403185418468535E-16   5   5   4   3
  0.2763777182908899E+00   5   5   4   4
 -0.1528296517810049E-01   5   5   5   1
 -0.7188694084447889E-14   5   5   5   2
  0.3466794989028660E-02   5   5   5   3
 -0.2470623774506515E-16   5   5   5   4
  0.2734733999201055E+00   5   5   5   5
 -0.1470305065074814E-13   6   1   1   1
 -0.2075982197481221E-01   6   1   2   1
 -0.1073738519334728E-13   6   1   2   2
 -0.8571160274584155E-15   6   1   3   1
  0.1206253859444402E-01   6   1   3   2
 -0.1070843950812674E-13   6   1   3   3
  0.8921875323293986E-16   6   1   4   1
  0.7765760490067422E-17   6   1   4   2
 -0.3962094361426078E-16   6   1   4   3
 -0.1053104272664644E-13   6   1   4   4
  0.3790858685986942E-14   6   1   5   1
  0.1168842544798185E-01   6   1   5   2
  0.2862591890959165E-14   6   1   5   3
 -0.3638844903137610E-16   6   1   5   4
 -0.5289835775784356E-14   6   1   5   5
  0.1792719609230288E-01   6   1   6   1
 -0.7036077574338423E-01   6   2   1   1
  0.4987329993433320E-15   6   2   2   1
 -0.6158940276364258E-01   6   2   2   2
  0.2559798732669995E-01   6   2   3   1
  0.7155734338404329E-15   6   2   3   2
 -0.8300157760829403E-01   6   2   3   3
  0.4665298208388049E-16   6   2   4   1
 -0.2595682743821562E-16   6   2   4   2
  0.4764075902548460E-16   6   2   4   3
 -0.6557036676945978E-01   6   2   4   4
  0.2789882786500975E-01   6   2   5   1
 -0.2231721751844162E-14   6   2   5   2
  0.1345213399843294E-01   6   2   5   3
  0.1041810206071209E-15   6   2   5   4
 -0.8586402233556159E-03   6   2   5   5
  0.6865168156178214E-14   6   2   6   1
  0.4430300764200937E-01   6   2   6   2
 -0.2125182798794390E-14   6   3   1   1
  0.3564629963237521E-01   6   3   2   1
 -0.7336016895643108E-15   6   3   2   2
 -0.2825837437311907E-15   6   3   3   1
 -0.6598644023474962E-02   6   3   3   2
 -0.1922910337203603E-14   6   3   3   3
 -0.5032594292852678E-16   6   3   4   1
  0.4540577865089318E-16   6   3   4   2
  0.3690812931755327E-16   6   3   4   3
 -0.1243227677178319E-14   6   3   4   4
  0.2016616040823038E-14   6   3   5   1
  0.8771852811781819E-02   6   3   5   2
 -0.9204876444401933E-15   6   3   5   3
 -0.2841590488808674E-16   6   3   5   4
 -0.5694259046847897E-14   6   3   5   5
 -0.5610205533519663E-02   6   3   6   1
  0.2728720027711518E-14   6   3   6   2
  0.2152514727096499E-01   6   3   6   3
  0.3005433998599822E-15   6   4   1   1
  0.5304269946067162E-16   6   4   2   1
  0.2286696039757035E-15   6   4   2   2
 -0.5476047892732666E-16   6   4   3   1
  0.2939337234023165E-16   6   4   3   2
  0.3092259536565749E-15   6   4   3   3
 -0.1448543653868048E-14   6   4   4   1
 -0.6132763662432134E-02   6   4   4   2
  0.3068095742369333E-15   6   4   4   3
  0.3003062659260625E-15   6   4   4   4
 -0.1011999911662214E-15   6   4   5   1
  0.4818520599912374E-16   6   4   5   2
 -0.4069092665816082E-16   6   4   5   3
  0.8814809301861855E-15   6   4   5   4
  0.3485123389584392E-16   6   4   5   5
  0.2380018635352193E-16   6   4   6   1
 -0.1271762764093959E-15   6   4   6   2
  0.1939238218985022E-16   6   4   6   3
  0.5693571171653351E-02   6   4   6   4
  0.4471991301509886E-14   6   5   1   1
  0.5342140453485409E-01   6   5   2   1
  0.3136683774744409E-14   6   5   2   2
  0.2013824220228888E-14   6   5   3   1
  0.1455486130499796E-01   6   5   3   2
  0.1351604415747757E-14   6   5   3   3
 -0.8018664928579762E-16   6   5   4   1
  0.9570024316641037E-16   6   5   4   2
 -0.1638070063411182E-16   6   5   4   3
  0.3045489964103877E-14   6   5   4   4
 -0.3336740606041388E-14   6   5   5   1
  0.2547053316752748E-01   6   5   5   2
 -0.4192392960566949E-14   6   5   5   3
 -0.8474664531096897E-16   6   5   5   4
 -0.1765946430424974E-13   6   5   5   5
  0.9221167223596047E-02   6   5   6   1
  0.2962907696968387E-14   6   5   6   2
  0.2259928715372037E-01   6   5   6   3
  0.8412901012966490E-16   6   5   6   4
  0.7363745171789333E-01   6   5   6   5
  0.3234371340428867E+00   6   6   1   1
  0.1545898825616732E-13   6   6   2   1
  0.3251601496262002E+00   6   6   2   2
  0.9961985592559640E-02   6   6   3   1
  0.4178948853628128E-14   6   6   3   2
  0.2975272528889124E+00   6   6   3   3
  0.3281154747060776E-16   6   6   4   1
 -0.3601008915126988E-16   6   6   4   2
  0.5906244750492286E-17   6   6   4   3
  0.2836353828656628E+00   6   6   4   4
 -0.1251964573290734E-01   6   6   5   1
  0.7230327447871332E-14   6   6   5   2
  0.6201341699316493E-02   6   6   5   3
 -0.1438625916090656E-16   6   6   5   4
  0.2747919685787306E+00   6   6   5   5
 -0.8534839501805891E-15   6   6   6   1
 -0.7705150203529909E-02   6   6   6   2
  0.7091549569793187E-14   6   6   6   3
  0.5727219106034703E-16   6   6   6   4
  0.1854072451124011E-13   6   6   6   5
  0.2869078486020298E+00   6   6   6   6
 -0.4173451771527967E-14   7   1   1   1
 -0.4017558485400591E-01   7   1   2   1
 -0.2886723231009074E-14   7   1   2   2
  0.3336632185824140E-16   7   1   3   1
 -0.2417350682469388E-01   7   1   3   2
 -0.3410839094408380E-14   7   1   3   3
 -0.7997190473230620E-16   7   1   4   1
 -0.2878335117286727E-16   7   1   4   2
  0.6043980824497402E-16   7   1   4   3
 -0.3423847249843654E-14   7   1   4   4
  0.1827097501072572E-14   7   1   5   1
  0.2986095072270004E-02   7   1   5   2
  0.6227657278756737E-15   7   1   5   3
  0.5628818999425251E-16   7   1   5   4
  0.1623111882941640E-14   7   1   5   5
 -0.1671266184219870E-02   7   1   6   1
  0.2477185123694881E-14   7   1   6   2
  0.8167531042260999E-03   7   1   6   3
 -0.2114599931808417E-16   7   1   6   4
 -0.1082027997164493E-01   7   1   6   5
 -0.4409612314746536E-14   7   1   6   6
  0.3277807954058643E-01   7   1   7   1
 -0.8333404384515243E-01   7   2   1   1
  0.7524363077049401E-15   7   2   2   1
 -0.7839520123777836E-01   7   2   2   2
 -0.4274312056659050E-01   7   2   3   1
  0.4549312315749177E-15   7   2   3   2
 -0.2171405422809146E-01   7   2   3   3
  0.1130300615217768E-17   7   2   4   1
  0.2238194774592887E-17   7   2   4   2
 -0.5388898768230946E-16   7   2   4   3
 -0.2687838987354747E-01   7   2   4   4
  0.1760641552081790E-01   7   2   5   1
  0.4336808689942018E-15   7   2   5   2
 -0.5974323531405673E-03   7   2   5   3
 -0.8160353240341440E-18   7   2   5   4
 -0.2697110957970430E-01   7   2   5   5
  0.3538835890992686E-14   7   2   6   1
 -0.1887934252113893E-02   7   2   6   2
  0.2428612866367530E-15   7   2   6   3
 -0.6204475691730868E-17   7   2   6   4
 -0.3053113317719180E-15   7   2   6   5
 -0.2402872078116694E-01   7   2   6   6
  0.3760013134179729E-15   7   2   7   1
  0.5450064023532965E-01   7   2   7   2
 -0.4276046896799200E-15   7   3   1   1
 -0.5522869100697902E-01   7   3   2   1
 -0.1952820022202539E-15   7   3   2   2
 -0.1096128396382845E-15   7   3   3   1
 -0.9017689991261593E-03   7   3   3   2
 -0.2713136178207203E-15   7   3   3   3
  0.8165888566687221E-16   7   3   4   1
 -0.6637399208654432E-16   7   3   4   2
 -0.4664773267752106E-16   7   3   4   3
 -0.3281312828487717E-15   7   3   4   4
 -0.7897328624384414E-15   7   3   5   1
 -0.6336587016656667E-02   7   3   5   2
  0.2886579864025407E-14   7   3   5   3
  0.1580382711875969E-16   7   3   5   4
  0.4799182463586262E-14   7   3   5   5
  0.9147690762546942E-02   7   3   6   1
 -0.5412337245047638E-15   7   3   6   2
 -0.2192622160673471E-01   7   3   6   3
 -0.9316464896384148E-17   7   3   6   4
 -0.1777871124748039E-01   7   3   6   5
 -0.4611048586681314E-14   7   3   6   6
  0.8199710395150933E-02   7   3   7   1
 -0.5390653201597928E-15   7   3   7   2
  0.3540628601306944E-01   7   3   7   3
 -0.3710210032838112E-15   7   4   1   1
  0.1318519983811142E-16   7   4   2   1
 -0.2875777330860188E-15   7   4   2   2
  0.6945837370462737E-16   7   4   3   1
 -0.3199698554682214E-16   7   4   3   2
 -0.3806368973693922E-15   7   4   3   3
 -0.7259611812077636E-15   7   4   4   1
  0.6204706290233177E-02   7   4   4   2
  0.1850132773831390E-15   7   4   4   3
 -0.3249332707098036E-15   7   4   4   4
  0.1299210815572901E-15   7   4   5   1
 -0.4281086096563233E-18   7   4   5   2
  0.2963161547496177E-16   7   4   5   3
  0.6784767788824836E-15   7   4   5   4
 -0.1056373071756642E-15   7   4   5   5
 -0.1703932317097357E-16   7   4   6   1
  0.1383226170664514E-15   7   4   6   2
  0.2293020152783951E-16   7   4   6   3
 -0.2447382294110248E-02   7   4   6   4
  0.2470282547481126E-16   7   4   6   5
 -0.1300108634692571E-15   7   4   6   6
  0.3508035142695515E-16   7   4   7   1
  0.5019274594592069E-16   7   4   7   2
 -0.2316658192199597E-16   7   4   7   3
  0.1033714365996352E-01   7   4   7   4
  0.5399745534585746E-14   7   5   1   1
  0.3077929530810392E-01   7   5   2   1
  0.4559391245675166E-14   7   5   2   2
 -0.1586079358129044E-14   7   5   3   1
 -0.3164194693140035E-03   7   5   3   2
  0.6712575750152598E-14   7   5   3   3
  0.7394303377412106E-16   7   5   4   1
  0.2593363214185082E-16   7   5   4   2
 -0.3187020414959133E-16   7   5   4   3
  0.5005952138482385E-14   7   5   4   4
 -0.8233431297854921E-15   7   5   5   1
  0.1014764308020863E-01   7   5   5   2
 -0.2544622498823479E-14   7   5   5   3
 -0.4880904267942757E-16   7   5   5   4
 -0.5801416271389535E-14   7   5   5   5
 -0.3251017804288995E-02   7   5   6   1
 -0.6231994087446679E-15   7   5   6   2
  0.1284974702426879E-01   7   5   6   3
  0.3168928891283612E-16   7   5   6   4
  0.2594036693916336E-01   7   5   6   5
  0.7865006048242914E-14   7   5   6   6
  0.2405283011306999E-02   7   5   7   1
  0.4625206467823162E-15   7   5   7   2
 -0.1775297288146107E-01   7   5   7   3
  0.1974528091809039E-16   7   5   7   4
  0.2303818359395094E-01   7   5   7   5
 -0.1553978953885262E-01   7   6   1   1
  0.6683510082178268E-14   7   6   2   1
 -0.1656160083308101E-01   7   6   2   2
  0.1406004848122763E-01   7   6   3   1
  0.2486888733138626E-15   7   6   3   2
 -0.3794136473978870E-01   7   6   3   3
 -0.8975154147056705E-17   7   6   4   1
  0.1369892214074627E-16   7   6   4   2
  0.2636400041134964E-16   7   6   4   3
 -0.2066488621808991E-01   7   6   4   4
  0.8476891164914790E-03   7   6   5   1
 -0.1687018580387445E-15   7   6   5   2
  0.4803434834318856E-02   7   6   5   3
  0.3359958559750067E-16   7   6   5   4
  0.3547003434537652E-02   7   6   5   5
 -0.1092442108996394E-14   7   6   6   1
  0.1021885039811059E-01   7   6   6   2
  0.2888965108804875E-14   7   6   6   3
 -0.3801973964725085E-16   7   6   6   4
  0.4208439152719734E-14   7   6   6   5
 -0.4449450746171306E-03   7   6   6   6
 -0.6056624386047149E-15   7   6   7   1
 -0.5352541138283149E-02   7   6   7   2
 -0.3344790807172093E-14   7   6   7   3
  0.1198800917650345E-16   7   6   7   4
  0.2756692443761644E-14   7   6   7   5
  0.1421522879255715E-01   7   6   7   6
  0.3868884233971297E+00   7   7   1   1
  0.1283695372222837E-15   7   7   2   1
  0.3897571084561502E+00   7   7   2   2
  0.1030406423588667E-02   7   7   3   1
 -0.7450637329320386E-15   7   7   3   2
  0.3672976418282564E+00   7   7   3   3
  0.2189462667246317E-16   7   7   4   1
  0.5140986637684884E-16   7   7   4   2
 -0.3024239519314809E-16   7   7   4   3
  0.3390873859758329E+00   7   7   4   4
 -0.2539349464150881E-01   7   7   5   1
  0.3941291737419306E-14   7   7   5   2
 -0.1406272763833738E-01   7   7   5   3
 -0.9517015977450179E-16   7   7   5   4
  0.2646503297096274E+00   7   7   5   5
 -0.5377642775528102E-14   7   7   6   1
 -0.3521724142992555E-01   7   7   6   2
 -0.1464106613724425E-14   7   7   6   3
  0.1275106706065912E-15   7   7   6   4
  0.1609823385706477E-14   7   7   6   5
  0.2709623002117452E+00   7   7   6   6
 -0.3486794186713382E-15   7   7   7   1
 -0.2728479362438038E-01   7   7   7   2
 -0.2489328188026718E-15   7   7   7   3
 -0.6901475485607898E-16   7   7   7   4
  0.5009881398621019E-14   7   7   7   5
 -0.2542591728198118E-01   7   7   7   6
  0.3544336185876927E+00   7   7   7   7
 -0.1743798865256512E-01   8   1   1   1
  0.4338977094286989E-15   8   1   2   1
 -0.2552470935816181E-01   8   1   2   2
 -0.1890933237229087E-01   8   1   3   1
 -0.3105426072541606E-15   8   1   3   2
  0.1378005064480731E-01   8   1   3   3
 -0.2405706903392284E-15   8   1   4   1
  0.4031630970873683E-16   8   1   4   2
  0.5427038878798130E-16   8   1   4   3
  0.1278178239566145E-01   8   1   4   4
  0.3434269414651699E-02   8   1   5   1
 -0.7181755190543981E-15   8   1   5   2
  0.5120249183382112E-02   8   1   5   3
  0.6265925908094145E-16   8   1   5   4
 -0.4312685381462364E-02   8   1   5   5
  0.3115997043723340E-15   8   1   6   1
 -0.4949406090221410E-03   8   1   6   2
  0.1303102591110328E-14   8   1   6   3
  0.8529038402822640E-17   8   1   6   4
 -0.9185360805297194E-15   8   1   6   5
 -0.9427432321702774E-03   8   1   6   6
  0.1151964808265848E-16   8   1   7   1
  0.1559280768808811E-01   8   1   7   2
  0.5995638013844840E-16   8   1   7   3
 -0.2194740499203197E-16   8   1   7   4
  0.3773023560249555E-15   8   1   7   5
 -0.3419147665055869E-04   8   1   7   6
 -0.1869330807041632E-01   8   1   7   7
  0.2355288591173304E-01   8   1   8   1
  0.1424734537430008E-14   8   2   1   1
 -0.4106428349274575E-01   8   2   2   1
  0.7527701702934067E-15   8   2   2   2
 -0.7218347013865367E-15   8   2   3   1
 -0.1426068150305027E-01   8   2   3   2
  0.1725759265463004E-14   8   2   3   3
  0.7789318682025316E-16   8   2   4   1
 -0.9414920359414867E-16   8   2   4   2
 -0.1152629689765865E-16   8   2   4   3
  0.1304906500292632E-14   8   2   4   4
 -0.1097212598555330E-14   8   2   5   1
 -0.4373827497519814E-02   8   2   5   2
  0.1530893467549532E-15   8   2   5   3
  0.9701793040626507E-17   8   2   5   4
  0.3658197401460860E-14   8   2   5   5
  0.1771387483315776E-02   8   2   6   1
 -0.1628037982204233E-14   8   2   6   2
 -0.4553697891053945E-02   8   2   6   3
  0.1078486661842448E-16   8   2   6   4
 -0.1293966974249918E-01   8   2   6   5
 -0.3137899520927470E-14   8   2   6   6
  0.1696754603887068E-01   8   2   7   1
 -0.2049142105997603E-15   8   2   7   2
  0.1704164312333266E-01   8   2   7   3
  0.2311764708159947E-16   8   2   7   4
 -0.9496119366175771E-02   8   2   7   5
 -0.1920338887906325E-14   8   2   7   6
  0.4640607408420185E-15   8   2   7   7
  0.3115454942637097E-15   8   2   8   1
  0.2246404539676085E-01   8   2   8   2
 -0.9447150792767134E-01   8   3   1   1
 -0.9265591766061121E-15   8   3   2   1
 -0.8500192298346596E-01   8   3   2   2
  0.1930028188838048E-01   8   3   3   1
  0.3100818213308543E-16   8   3   3   2
 -0.1086750737528352E+00   8   3   3   3
  0.5715812741171275E-16   8   3   4   1
 -0.3506190962265559E-16   8   3   4   2
 -0.9985187826578160E-17   8   3   4   3
 -0.7712025365822282E-01   8   3   4   4
  0.2745346808125555E-01   8   3   5   1
 -0.3833738881908744E-14   8   3   5   2
  0.4689352514845769E-02   8   3   5   3
  0.7547046601909638E-16   8   3   5   4
 -0.2351043704629444E-01   8   3   5   5
  0.5358560817292357E-14   8   3   6   1
  0.3118762510316425E-01   8   3   6   2
 -0.6036837696399289E-15   8   3   6   3
 -0.1153288386530078E-15   8   3   6   4
 -0.5342948306008566E-15   8   3   6   5
 -0.3206666302419182E-01   8   3   6   6
  0.1768333743323858E-14   8   3   7   1
  0.1727417666689918E-01   8   3   7   2
  0.5774460770657797E-15   8   3   7   3
  0.1976727304137903E-15   8   3   7   4
 -0.1264613413987092E-14   8   3   7   5
  0.1023972350399624E-02   8   3   7   6
 -0.3625248098427686E-01   8   3   7   7
 -0.5644891892244019E-02   8   3   8   1
 -0.6231994087446679E-15   8   3   8   2
  0.7105898982055882E-01   8   3   8   3
 -0.7471348431963027E-15   8   4   1   1
  0.7853324697787116E-16   8   4   2   1
 -0.5746219213635967E-15   8   4   2   2
  0.3205424530846011E-16   8   4   3   1
 -0.4424662479510632E-17   8   4   3   2
 -0.5636917475937501E-15   8   4   3   3
  0.2754720695777675E-01   8   4   4   1
  0.8445596110483178E-16   8   4   4   2
 -0.1111906300647909E-01   8   4   4   3
 -0.4997066528254975E-15   8   4   4   4
  0.2037485473168510E-15   8   4   5   1
 -0.1294003116067114E-16   8   4   5   2
  0.7048644052202312E-16   8   4   5   3
 -0.4958387880475965E-02   8   4   5   4
 -0.1689759405268893E-15   8   4   5   5
  0.2221136146214859E-16   8   4   6   1
  0.2002768403082766E-15   8   4   6   2
 -0.8976432055437783E-17   8   4   6   3
 -0.5027445473815284E-15   8   4   6   4
 -0.2155524600066687E-17   8   4   6   5
 -0.1991222148862287E-15   8   4   6   6
 -0.4943611608352683E-16   8   4   7   1
  0.1520743547977321E-15   8   4   7   2
  0.2941480514015367E-16   8   4   7   3
 -0.2149413866293567E-15   8   4   7   4
  0.4302833593497074E-16   8   4   7   5
  0.6993000531428961E-17   8   4   7   6
 -0.2441667065766906E-15   8   4   7   7
 -0.7856641320606255E-16   8   4   8   1
  0.8636104338387014E-17   8   4   8   2
  0.3519460961426115E-15   8   4   8   3
  0.2166475660324972E-01   8   4   8   4
  0.1827004134033371E-01   8   5   1   1
 -0.2354670278204019E-14   8   5   2   1
  0.1118698991725507E-01   8   5   2   2
  0.2027144819537059E-01   8   5   3   1
 -0.9420632676726548E-15   8   5   3   2
 -0.7537963694241497E-02   8   5   3   3
  0.1380818237122097E-15   8   5   4   1
 -0.9648516832620680E-17   8   5   4   2
 -0.1140872988985430E-16   8   5   4   3
  0.3760495551460891E-03   8   5   4   4
 -0.4913938599328642E-02   8   5   5   1
 -0.1249868264441290E-14   8   5   5   2
  0.4686196423735980E-02   8   5   5   3
  0.2003097311771149E-17   8   5   5   4
  0.1551261021357180E-01   8   5   5   5
 -0.8651933336434325E-15   8   5   6   1
  0.5777033228186595E-02   8   5   6   2
 -0.4727121472036799E-16   8   5   6   3
 -0.1122560384234491E-16   8   5   6   4
 -0.1186550857568136E-14   8   5   6   5
  0.1257221549846241E-01   8   5   6   6
  0.2235624879665110E-15   8   5   7   1
 -0.1404593097740858E-01   8   5   7   2
  0.1362462660053909E-14   8   5   7   3
 -0.5677054399998713E-17   8   5   7   4
 -0.1868297183627021E-14   8   5   7   5
  0.7886498603222561E-02   8   5   7   6
 -0.8139533139647196E-02   8   5   7   7
  0.1479635039135166E-02   8   5   8   1
  0.1287381659609288E-14   8   5   8   2
 -0.4276645431346378E-02   8   5   8   3
  0.1517451841707236E-16   8   5   8   4
  0.1687416724278573E-01   8   5   8   5
  0.1516434475314811E-14   8   6   1   1
  0.6746000105593643E-02   8   6   2   1
  0.3991683310899369E-15   8   6   2   2
  0.4225034222222340E-14   8   6   3   1
  0.4109767013543526E-02   8   6   3   2
 -0.3681676224611526E-14   8   6   3   3
  0.1043782326422441E-16   8   6   4   1
  0.4373337299703195E-16   8   6   4   2
 -0.2250643418625424E-16   8   6   4   3
 -0.1113275339487865E-14   8   6   4   4
 -0.7668561965989973E-15   8   6   5   1
  0.3133017306662496E-02   8   6   5   2
  0.3183759679503684E-15   8   6   5   3
 -0.1527791882392815E-16   8   6   5   4
 -0.1691446020522023E-14   8   6   5   5
  0.1557367237917447E-02   8   6   6   1
  0.2054563116860031E-14   8   6   6   2
  0.2539649458387012E-02   8   6   6   3
  0.3120971102159885E-17   8   6   6   4
  0.8292588207950511E-02   8   6   6   5
  0.3600505944200793E-14   8   6   6   6
 -0.6776656374936641E-03   8   6   7   1
 -0.2419180307466906E-14   8   6   7   2
 -0.5338786397875523E-02   8   6   7   3
  0.4762496565566517E-17   8   6   7   4
  0.5582119193542973E-02   8   6   7   5
  0.2671040472135289E-14   8   6   7   6
 -0.1254727011409724E-14   8   6   7   7
  0.4073889663114283E-16   8   6   8   1
 -0.3480838021080843E-02   8   6   8   2
  0.5825672382648792E-15   8   6   8   3
  0.1348121895689075E-16   8   6   8   4
  0.2318674766077500E-14   8   6   8   5
  0.6355348644727768E-02   8   6   8   6
  0.9482817284598518E-15   8   7   1   1
  0.2115776430500077E-01   8   7   2   1
  0.7480135750184523E-15   8   7   2   2
  0.8949275782238475E-15   8   7   3   1
  0.1449611778863940E-01   8   7   3   2
  0.1572710728613675E-15   8   7   3   3
 -0.4064385986967270E-16   8   7   4   1
  0.7180688958554051E-16   8   7   4   2
  0.5588674788855178E-16   8   7   4   3
  0.3310452115055327E-15   8   7   4   4
 -0.2619432448724979E-15   8   7   5   1
 -0.2301553168658873E-02   8   7   5   2
  0.3827233668873831E-15   8   7   5   3
  0.5464159428242993E-17   8   7   5   4
 -0.1527091789796210E-14   8   7   5   5
  0.2183906616824863E-02   8   7   6   1
 -0.2662800535624399E-15   8   7   6   2
 -0.2678146704387310E-02   8   7   6   3
 -0.1366428980284929E-17   8   7   6   4
  0.7254160092638146E-02   8   7   6   5
  0.2648360019938770E-14   8   7   6   6
 -0.2044330258912003E-01   8   7   7   1
 -0.5039371697712625E-15   8   7   7   2
  0.1369862263931693E-02   8   7   7   3
  0.1292776104770287E-16   8   7   7   4
 -0.6913484173789307E-02   8   7   7   5
 -0.7121039868884793E-15   8   7   7   6
 -0.3505405344895784E-15   8   7   7   7
 -0.1110223024625157E-15   8   7   8   1
 -0.8015337655370073E-02   8   7   8   2
 -0.2816994413342572E-15   8   7   8   3
  0.3104253482576562E-17   8   7   8   4
  0.7077671781985373E-15   8   7   8   5
 -0.2930646341435980E-02   8   7   8   6
  0.2059894548879901E-01   8   7   8   7
  0.4095153559939533E+00   8   8   1   1
  0.1002670169114595E-14   8   8   2   1
  0.3868036420241575E+00   8   8   2   2
 -0.1560095939078405E-01   8   8   3   1
 -0.3382710778154774E-16   8   8   3   2
  0.4290201820880841E+00   8   8   3   3
 -0.1436245809572291E-15   8   8   4   1
  0.5316286753289248E-16   8   8   4   2
  0.1608635495633224E-15   8   8   4   3
  0.3758047818436184E+00   8   8   4   4
 -0.4155467028812068E-01   8   8   5   1
  0.6120104423246175E-14   8   8   5   2
 -0.1705857286482737E-01   8   8   5   3
 -0.1313987370220522E-15   8   8   5   4
  0.2649254901875235E+00   8   8   5   5
 -0.7674416657721395E-14   8   8   6   1
 -0.4946005755323091E-01   8   8   6   2
 -0.2498001805406602E-15   8   8   6   3
  0.2002380429122584E-15   8   8   6   4
  0.3330669073875470E-14   8   8   6   5
  0.2728560705972310E+00   8   8   6   6
 -0.2903059737047187E-14   8   8   7   1
 -0.2993915813316732E-01   8   8   7   2
 -0.5238864897449957E-15   8   8   7   3
 -0.2239245743131237E-15   8   8   7   4
  0.5426215032855453E-14   8   8   7   5
 -0.2353477885463828E-01   8   8   7   6
  0.3255604974249570E+00   8   8   7   7
  0.4480679807025024E-02   8   8   8   1
  0.6487865800153259E-15   8   8   8   2
 -0.5999327733593474E-01   8   8   8   3
 -0.4060090025170868E-15   8   8   8   4
  0.5368714893077553E-03   8   8   8   5
 -0.1498801083243961E-14   8   8   8   6
  0.6453171330633722E-15   8   8   8   7
  0.3755640305828606E+00   8   8   8   8
  0.4366448279834427E-15   9   1   1   1
  0.1230155430421208E-15   9   1   2   1
 -0.3353437578241927E-15   9   1   2   2
  0.2048908959961575E-15   9   1   3   1
  0.2399953040049406E-15   9   1   3   2
  0.1092333650739359E-16   9   1   3   3
 -0.3489429174958837E-01   9   1   4   1
 -0.1301720233340409E-16   9   1   4   2
  0.1328592134192950E-01   9   1   4   3
  0.5103237119186402E-15   9   1   4   4
 -0.4330796553192172E-15   9   1   5   1
  0.1125291198896704E-15   9   1   5   2
 -0.2610066520505634E-15   9   1   5   3
  0.1488601380789198E-01   9   1   5   4
 -0.2702249491228478E-16   9   1   5   5
  0.7500717738764126E-16   9   1   6   1
 -0.1836902530681529E-15   9   1   6   2
  0.1065141550415413E-17   9   1   6   3
  0.2574058587806460E-14   9   1   6   4
  0.1384248847851722E-15   9   1   6   5
 -0.2153697853114549E-15   9   1   6   6
 -0.8804643223436827E-16   9   1   7   1
  0.1155198445183120E-15   9   1   7   2
 -0.1013981920085594E-15   9   1   7   3
  0.1000500070703729E-14   9   1   7   4
 -0.4883299699249817E-16   9   1   7   5
  0.7875329869693490E-16   9   1   7   6
 -0.2525745335252417E-15   9   1   7   7
  0.2611818493845854E-15   9   1   8   1
 -0.1531715061547780E-15   9   1   8   2
  0.4964536992201897E-16   9   1   8   3
 -0.1233502986757638E-01   9   1   8   4
  0.3139814841092314E-16   9   1   8   5
  0.1523887702414238E-16   9   1   8   6
  0.1506748208284976E-15   9   1   8   7
  0.1544122965951197E-15   9   1   8   8
  0.3357888052529297E-01   9   1   9   1
 -0.1452225912963148E-15   9   2   1   1
 -0.1260638394816713E-14   9   2   2   1
 -0.6476037883406632E-16   9   2   2   2
  0.4247608980819204E-15   9   2   3   1
 -0.2200623839283815E-15   9   2   3   2
 -0.5552877864194850E-15   9   2   3   3
 -0.5818819886105504E-16   9   2   4   1
 -0.7394933325017945E-02   9   2   4   2
 -0.1358047924332820E-16   9   2   4   3
 -0.3820975144032453E-15   9   2   4   4
  0.1750868821072233E-15   9   2   5   1
 -0.2524455230845341E-15   9   2   5   2