 &FCI NORB= 14,NELEC=  3,MS2= 1,
  ORBSYM=1,1,1,1,1,2,2,3,3,4,5,5,6,7,
  ISYM=1,
  IUHF=1,
  OCC=  2,  0,  0,  0,  0,  0,  0,  0,
  CLOSED=  1,  0,  0,  0,  0,  0,  0,  0,
  FOCKA=     -2.477521298903,     -0.079266097416,      0.156457433385,      0.335456608312,      0.335456608312,
       0.038575189780,      0.173004944825,      0.038575189780,      0.173004944825,      0.335456608312,      0.038575189780,      0.173004944825,      0.335456608312,      0.335456608312,
  FOCKB=     -2.477521298903,     -0.079266097416,      0.156457433385,      0.335456608312,      0.335456608312,
       0.038575189780,      0.173004944825,      0.038575189780,      0.173004944825,      0.335456608312,      0.038575189780,      0.173004944825,      0.335456608312,      0.335456608312,
 /
  0.1650653172488871E+01   1   1   1   1
 -0.1216238467666122E+00   2   1   1   1
  0.1399335805506271E-01   2   1   2   1
  0.3224242504983270E+00   2   2   1   1
 -0.2746275690596787E-02   2   2   2   1
  0.2340722015987657E+00   2   2   2   2
  0.7873462774787013E-01   3   1   1   1
 -0.8526009136033512E-02   3   1   2   1
  0.1844103141208628E-02   3   1   2   2
  0.5521402560533413E-02   3   1   3   1
 -0.1083893721324296E+00   3   2   1   1
  0.1677596963423193E-02   3   2   2   1
 -0.4748620069999683E-01   3   2   2   2
 -0.1152462811329351E-02   3   2   3   1
  0.2642925643567014E-01   3   2   3   2
  0.2317348227438699E+00   3   3   1   1
 -0.1212282843226645E-02   3   3   2   1
  0.1807010469429238E+00   3   3   2   2
  0.8810693528737840E-03   3   3   3   1
 -0.2562859709950932E-01   3   3   3   2
  0.1528047615527641E+00   3   3   3   3
  0.0000000000000000E+00   4   1   1   1
  0.0000000000000000E+00   4   1   2   1
  0.0000000000000000E+00   4   1   2   2
  0.0000000000000000E+00   4   1   3   1
  0.0000000000000000E+00   4   1   3   2
  0.0000000000000000E+00   4   1   3   3
  0.2543546415576865E-03   4   1   4   1
  0.0000000000000000E+00   4   2   1   1
  0.0000000000000000E+00   4   2   2   1
  0.0000000000000000E+00   4   2   2   2
  0.0000000000000000E+00   4   2   3   1
  0.0000000000000000E+00   4   2   3   2
  0.0000000000000000E+00   4   2   3   3
  0.1231214625279282E-02   4   2   4   1
  0.2464697167940920E-01   4   2   4   2
  0.0000000000000000E+00   4   3   1   1
  0.0000000000000000E+00   4   3   2   1
  0.0000000000000000E+00   4   3   2   2
  0.0000000000000000E+00   4   3   3   1
  0.0000000000000000E+00   4   3   3   2
  0.0000000000000000E+00   4   3   3   3
 -0.6966665317608145E-03   4   3   4   1
 -0.6697798998551251E-02   4   3   4   2
  0.5087650559377699E-02   4   3   4   3
  0.2877964766143672E+00   4   4   1   1
 -0.3271712564813513E-03   4   4   2   1
  0.2356258994062771E+00   4   4   2   2
  0.2915996638182400E-03   4   4   3   1
 -0.4546077819278510E-01   4   4   3   2
  0.1802977089813984E+00   4   4   3   3
  0.7612615786068757E-03   4   4   4   1
  0.1700134333557772E-01   4   4   4   2
 -0.4411746146098456E-02   4   4   4   3
  0.2601143287146929E+00   4   4   4   4
  0.0000000000000000E+00   5   1   1   1
  0.0000000000000000E+00   5   1   2   1
  0.0000000000000000E+00   5   1   2   2
  0.0000000000000000E+00   5   1   3   1
  0.0000000000000000E+00   5   1   3   2
  0.0000000000000000E+00   5   1   3   3
  0.0000000000000000E+00   5   1   4   1
  0.0000000000000000E+00   5   1   4   2
  0.0000000000000000E+00   5   1   4   3
  0.0000000000000000E+00   5   1   4   4
  0.2543546415576865E-03   5   1   5   1
  0.0000000000000000E+00   5   2   1   1
  0.0000000000000000E+00   5   2   2   1
  0.0000000000000000E+00   5   2   2   2
  0.0000000000000000E+00   5   2   3   1
  0.0000000000000000E+00   5   2   3   2
  0.0000000000000000E+00   5   2   3   3
  0.0000000000000000E+00   5   2   4   1
  0.0000000000000000E+00   5   2   4   2
  0.0000000000000000E+00   5   2   4   3
  0.0000000000000000E+00   5   2   4   4
  0.1231214625279279E-02   5   2   5   1
  0.2464697167940921E-01   5   2   5   2
  0.0000000000000000E+00   5   3   1   1
  0.0000000000000000E+00   5   3   2   1
  0.0000000000000000E+00   5   3   2   2
  0.0000000000000000E+00   5   3   3   1
  0.0000000000000000E+00   5   3   3   2
  0.0000000000000000E+00   5   3   3   3
  0.0000000000000000E+00   5   3   4   1
  0.0000000000000000E+00   5   3   4   2
  0.0000000000000000E+00   5   3   4   3
  0.0000000000000000E+00   5   3   4   4
 -0.6966665317608001E-03   5   3   5   1
 -0.6697798998551227E-02   5   3   5   2
  0.5087650559377548E-02   5   3   5   3
  0.0000000000000000E+00   5   4   1   1
  0.0000000000000000E+00   5   4   2   1
  0.0000000000000000E+00   5   4   2   2
  0.0000000000000000E+00   5   4   3   1
  0.0000000000000000E+00   5   4   3   2
  0.0000000000000000E+00   5   4   3   3
  0.0000000000000000E+00   5   4   4   1
  0.0000000000000000E+00   5   4   4   2
  0.0000000000000000E+00   5   4   4   3
  0.0000000000000000E+00   5   4   4   4
 -0.7612615786068713E-03   5   4   5   1
 -0.1700134333557775E-01   5   4   5   2
  0.4411746146098591E-02   5   4   5   3
  0.1522066377631826E-01   5   4   5   4
  0.2877964766143672E+00   5   5   1   1
 -0.3271712564813514E-03   5   5   2   1
  0.2356258994062771E+00   5   5   2   2
  0.2915996638182400E-03   5   5   3   1
 -0.4546077819278493E-01   5   5   3   2
  0.1802977089813975E+00   5   5   3   3
 -0.7612615786068738E-03   5   5   4   1
 -0.1700134333557773E-01   5   5   4   2
  0.4411746146098470E-02   5   5   4   3
  0.2296730011620564E+00   5   5   4   4
  0.0000000000000000E+00   5   5   5   1
  0.0000000000000000E+00   5   5   5   2
  0.0000000000000000E+00   5   5   5   3
  0.0000000000000000E+00   5   5   5   4
  0.2601143287146929E+00   5   5   5   5
  0.1960575749178870E+00   6   6   1   1
 -0.2722599936868183E-03   6   6   2   1
  0.1738483577442677E+00   6   6   2   2
  0.2420656812603048E-03   6   6   3   1
 -0.1875765251967909E-01   6   6   3   2
  0.1475910030711556E+00   6   6   3   3
 -0.2398693927864313E-03   6   6   4   1
 -0.6792747468212505E-02   6   6   4   2
  0.3757248494118562E-03   6   6   4   3
  0.1716124557803614E+00   6   6   4   4
  0.4154659754867948E-03   6   6   5   1
  0.1176538373792894E-01   6   6   5   2
 -0.6507745288475630E-03   6   6   5   3
 -0.8090997896644220E-02   6   6   5   4
  0.1809551354076418E+00   6   6   5   5
  0.1584698475243272E+00   6   6   6   6
  0.9882086813794927E-01   7   6   1   1
 -0.8605910015837540E-03   7   6   2   1
  0.5455313834599121E-01   7   6   2   2
  0.6893324795327199E-03   7   6   3   1
 -0.2376751185521549E-01   7   6   3   2
  0.3031412450785154E-01   7   6   3   3
 -0.3131762975735988E-03   7   6   4   1
 -0.3760352694351280E-02   7   6   4   2
  0.2042110603355136E-02   7   6   4   3
  0.5212911940669136E-01   7   6   4   4
  0.5424372591237818E-03   7   6   5   1
  0.6513121920995021E-02   7   6   5   2
 -0.3537039319686494E-02   7   6   5   3
 -0.4468561280213938E-02   7   6   5   4
  0.5728896952273495E-01   7   6   5   5
  0.2726875558433429E-01   7   6   6   6
  0.2960067753415523E-01   7   6   7   6
  0.3269596585470299E+00   7   7   1   1
 -0.2763967073075535E-02   7   7   2   1
  0.2170130022687740E+00   7   7   2   2
  0.2200563365771069E-02   7   7   3   1
 -0.4712983296338441E-01   7   7   3   2
  0.1709319651250425E+00   7   7   3   3
 -0.7139710359365804E-03   7   7   4   1
 -0.8155006979998750E-02   7   7   4   2
  0.2999431072992269E-02   7   7   4   3
  0.2095741934286618E+00   7   7   4   4
  0.1236634109374731E-02   7   7   5   1
  0.1412488642543698E-01   7   7   5   2
 -0.5195167012224395E-02   7   7   5   3
 -0.9364216306627430E-02   7   7   5   4
  0.2203870590394244E+00   7   7   5   5
  0.1700285937745669E+00   7   7   6   6
  0.5440935701550231E-01   7   7   7   6
  0.2220104408789435E+00   7   7   7   7
  0.1960575749178870E+00   8   8   1   1
 -0.2722599936868183E-03   8   8   2   1
  0.1738483577442677E+00   8   8   2   2
  0.2420656812603048E-03   8   8   3   1
 -0.1875765251967909E-01   8   8   3   2
  0.1475910030711556E+00   8   8   3   3
 -0.2398693927864313E-03   8   8   4   1
 -0.6792747468212517E-02   8   8   4   2
  0.3757248494119013E-03   8   8   4   3
  0.1716124557803614E+00   8   8   4   4
 -0.4154659754867948E-03   8   8   5   1
 -0.1176538373792894E-01   8   8   5   2
  0.6507745288475630E-03   8   8   5   3
  0.8090997896644223E-02   8   8   5   4
  0.1809551354076418E+00   8   8   5   5
  0.1406377631877656E+00   8   8   6   6
  0.2597912544029851E-01   8   8   7   6
  0.1558291001999744E+00   8   8   7   7
  0.1584698475243272E+00   8   8   8   8
  0.9882086813794927E-01   9   8   1   1
 -0.8605910015837540E-03   9   8   2   1
  0.5455313834599121E-01   9   8   2   2
  0.6893324795327199E-03   9   8   3   1
 -0.2376751185521549E-01   9   8   3   2
  0.3031412450785154E-01   9   8   3   3
 -0.3131762975735988E-03   9   8   4   1
 -0.3760352694351310E-02   9   8   4   2
  0.2042110603355244E-02   9   8   4   3
  0.5212911940669136E-01   9   8   4   4
 -0.5424372591237818E-03   9   8   5   1
 -0.6513121920995021E-02   9   8   5   2
  0.3537039319686494E-02   9   8   5   3
  0.4468561280213935E-02   9   8   5   4
  0.5728896952273495E-01   9   8   5   5
  0.2597912544029855E-01   9   8   6   6
  0.2221550765416261E-01   9   8   7   6
  0.4742348484134815E-01   9   8   7   7
  0.2726875558433429E-01   9   8   8   8
  0.2960067753415523E-01   9   8   9   8
  0.3269596585470299E+00   9   9   1   1
 -0.2763967073075535E-02   9   9   2   1
  0.2170130022687740E+00   9   9   2   2
  0.2200563365771069E-02   9   9   3   1
 -0.4712983296338441E-01   9   9   3   2
  0.1709319651250425E+00   9   9   3   3
 -0.7139710359365804E-03   9   9   4   1
 -0.8155006979998757E-02   9   9   4   2
  0.2999431072992293E-02   9   9   4   3
  0.2095741934286618E+00   9   9   4   4
 -0.1236634109374731E-02   9   9   5   1
 -0.1412488642543698E-01   9   9   5   2
  0.5195167012224395E-02   9   9   5   3
  0.9364216306627347E-02   9   9   5   4
  0.2203870590394244E+00   9   9   5   5
  0.1558291001999746E+00   9   9   6   6
  0.4742348484134856E-01   9   9   7   6
  0.2006109413911189E+00   9   9   7   7
  0.1700285937745669E+00   9   9   8   8
  0.5440935701550231E-01   9   9   9   8
  0.2220104408789435E+00   9   9   9   9
  0.2877964766143669E+00  10  10   1   1
 -0.3271712564813548E-03  10  10   2   1
  0.2356258994062767E+00  10  10   2   2
  0.2915996638181845E-03  10  10   3   1
 -0.4546077819278488E-01  10  10   3   2
  0.1802977089813993E+00  10  10   3   3
 -0.7612615786068656E-03  10  10   4   1
 -0.1700134333557772E-01  10  10   4   2
  0.4411746146098538E-02  10  10   4   3
  0.2296730011620562E+00  10  10   4   4
  0.0000000000000000E+00  10  10   5   1
  0.0000000000000000E+00  10  10   5   2
  0.0000000000000000E+00  10  10   5   3
  0.0000000000000000E+00  10  10   5   4
  0.2442121426797333E+00  10  10   5   5
  0.1809551354076416E+00  10  10   6   6
  0.5728896952273488E-01  10  10   7   6
  0.2203870590394237E+00  10  10   7   7
  0.1809551354076416E+00  10  10   8   8
  0.5728896952273488E-01  10  10   9   8
  0.2203870590394237E+00  10  10   9   9
  0.2601143287146923E+00  10  10  10  10
  0.1960575749178870E+00  11  11   1   1
 -0.2722599936868183E-03  11  11   2   1
  0.1738483577442677E+00  11  11   2   2
  0.2420656812603048E-03  11  11   3   1
 -0.1875765251967909E-01  11  11   3   2
  0.1475910030711556E+00  11  11   3   3
  0.4797387855728610E-03  11  11   4   1
  0.1358549493642505E-01  11  11   4   2
 -0.7514496988237463E-03  11  11   4   3
  0.1856264752212820E+00  11  11   4   4
  0.0000000000000000E+00  11  11   5   1
  0.0000000000000000E+00  11  11   5   2
  0.0000000000000000E+00  11  11   5   3
  0.0000000000000000E+00  11  11   5   4
  0.1669411159667211E+00  11  11   5   5
  0.1406377631877656E+00  11  11   6   6
  0.2597912544029851E-01  11  11   7   6
  0.1558291001999744E+00  11  11   7   7
  0.1406377631877656E+00  11  11   8   8
  0.2597912544029851E-01  11  11   9   8
  0.1558291001999744E+00  11  11   9   9
  0.1669411159667209E+00  11  11  10  10
  0.1584698475243272E+00  11  11  11  11
  0.9882086813794927E-01  12  11   1   1
 -0.8605910015837540E-03  12  11   2   1
  0.5455313834599121E-01  12  11   2   2
  0.6893324795327199E-03  12  11   3   1
 -0.2376751185521549E-01  12  11   3   2
  0.3031412450785154E-01  12  11   3   3
  0.6263525951471954E-03  12  11   4   1
  0.7520705388702601E-02  12  11   4   2
 -0.4084221206710425E-02  12  11   4   3
  0.5986889458075681E-01  12  11   4   4
  0.0000000000000000E+00  12  11   5   1
  0.0000000000000000E+00  12  11   5   2
  0.0000000000000000E+00  12  11   5   3
  0.0000000000000000E+00  12  11   5   4
  0.4954919434866946E-01  12  11   5   5
  0.2597912544029855E-01  12  11   6   6
  0.2221550765416261E-01  12  11   7   6
  0.4742348484134815E-01  12  11   7   7
  0.2597912544029855E-01  12  11   8   8
  0.2221550765416261E-01  12  11   9   8
  0.4742348484134815E-01  12  11   9   9
  0.4954919434866931E-01  12  11  10  10
  0.2726875558433429E-01  12  11  11  11
  0.2960067753415523E-01  12  11  12  11
  0.3269596585470299E+00  12  12   1   1
 -0.2763967073075535E-02  12  12   2   1
  0.2170130022687740E+00  12  12   2   2
  0.2200563365771069E-02  12  12   3   1
 -0.4712983296338441E-01  12  12   3   2
  0.1709319651250425E+00  12  12   3   3
  0.1427942071873148E-02  12  12   4   1
  0.1631001395999754E-01  12  12   4   2
 -0.5998862145983610E-02  12  12   4   3
  0.2257934918448055E+00  12  12   4   4
  0.0000000000000000E+00  12  12   5   1
  0.0000000000000000E+00  12  12   5   2
  0.0000000000000000E+00  12  12   5   3
  0.0000000000000000E+00  12  12   5   4
  0.2041677606232810E+00  12  12   5   5
  0.1558291001999746E+00  12  12   6   6
  0.4742348484134856E-01  12  12   7   6
  0.2006109413911189E+00  12  12   7   7
  0.1558291001999746E+00  12  12   8   8
  0.4742348484134856E-01  12  12   9   8
  0.2006109413911189E+00  12  12   9   9
  0.2041677606232811E+00  12  12  10  10
  0.1700285937745669E+00  12  12  11  11
  0.5440935701550231E-01  12  12  12  11
  0.2220104408789435E+00  12  12  12  12
  0.2877964766143669E+00  13  13   1   1
 -0.3271712564813583E-03  13  13   2   1
  0.2356258994062767E+00  13  13   2   2
  0.2915996638181845E-03  13  13   3   1
 -0.4546077819278488E-01  13  13   3   2
  0.1802977089813993E+00  13  13   3   3
  0.3806307893034322E-03  13  13   4   1
  0.8500671667788869E-02  13  13   4   2
 -0.2205873073049288E-02  13  13   4   3
  0.2405773573003139E+00  13  13   4   4
  0.6592718659985923E-03  13  13   5   1
  0.1472359522707157E-01  13  13   5   2
 -0.3820684237569451E-02  13  13   5   3
 -0.6295632951762685E-02  13  13   5   4
  0.2333077865414754E+00  13  13   5   5
  0.1809551354076416E+00  13  13   6   6
  0.5728896952273488E-01  13  13   7   6
  0.2203870590394237E+00  13  13   7   7
  0.1669411159667209E+00  13  13   8   8
  0.4954919434866931E-01  13  13   9   8
  0.2041677606232811E+00  13  13   9   9
  0.2333077865414751E+00  13  13  10  10
  0.1809551354076416E+00  13  13  11  11
  0.5728896952273488E-01  13  13  12  11
  0.2203870590394236E+00  13  13  12  12
  0.2601143287146923E+00  13  13  13  13
  0.2877964766143670E+00  14  14   1   1
 -0.3271712564813514E-03  14  14   2   1
  0.2356258994062767E+00  14  14   2   2
  0.2915996638181428E-03  14  14   3   1
 -0.4546077819278488E-01  14  14   3   2
  0.1802977089813993E+00  14  14   3   3
  0.3806307893034322E-03  14  14   4   1
  0.8500671667788869E-02  14  14   4   2
 -0.2205873073049288E-02  14  14   4   3
  0.2405773573003140E+00  14  14   4   4
 -0.6592718659985923E-03  14  14   5   1
 -0.1472359522707157E-01  14  14   5   2
  0.3820684237569451E-02  14  14   5   3
  0.6295632951762693E-02  14  14   5   4
  0.2333077865414754E+00  14  14   5   5
  0.1669411159667209E+00  14  14   6   6
  0.4954919434866931E-01  14  14   7   6
  0.2041677606232811E+00  14  14   7   7
  0.1809551354076416E+00  14  14   8   8
  0.5728896952273488E-01  14  14   9   8
  0.2203870590394237E+00  14  14   9   9
  0.2333077865414751E+00  14  14  10  10
  0.1809551354076416E+00  14  14  11  11
  0.5728896952273488E-01  14  14  12  11
  0.2203870590394236E+00  14  14  12  12
  0.2333077865414751E+00  14  14  13  13
  0.2601143287146923E+00  14  14  14  14
  0.7603298512260799E-03   6   1   6   1
  0.1938942908124398E-02   6   2   6   1
  0.3049784750415806E-01   6   2   6   2
 -0.4547874265992032E-03   6   3   6   1
  0.9129746699624037E-02   6   3   6   2
  0.1476559766682237E-01   6   3   6   3
 -0.8132936185038968E-03   6   4   6   1
 -0.1297572066740066E-01   6   4   6   2
 -0.3051878915985498E-02   6   4   6   3
  0.9511487709763060E-02   6   4   6   4
  0.1408665868720289E-02   6   5   6   1
  0.2247460746075949E-01   6   5   6   2
  0.5286009341035101E-02   6   5   6   3
 -0.1088006572271132E-01   6   5   6   4
  0.2207470545737947E-01   6   5   6   5
  0.2506233156738205E-02   7   1   6   1
  0.5559091252130888E-02   7   1   6   2
 -0.1376133491360488E-02   7   1   6   3
 -0.2319089081567583E-02   7   1   6   4
  0.4016780116553299E-02   7   1   6   5
  0.8344695793908168E-02   7   1   7   1
  0.2809045383682331E-02   7   2   6   1
  0.2400092498929782E-01   7   2   6   2
 -0.3720805645300421E-02   7   2   6   3
 -0.1077368707376659E-01   7   2   6   4
  0.1866057339661179E-01   7   2   6   5
  0.8215380816539310E-02   7   2   7   1
  0.2943870565822544E-01   7   2   7   2
 -0.2229658385891948E-02   7   3   6   1
 -0.2387352123061797E-01   7   3   6   2
 -0.5936363307653897E-02   7   3   6   3
  0.9759390769663742E-02   7   3   6   4
 -0.1690376066397630E-01   7   3   6   5
 -0.6518474416425821E-02   7   3   7   1
 -0.2150147579357040E-01   7   3   7   2
  0.2313826776521493E-01   7   3   7   3
 -0.1148080073501346E-02   7   4   6   1
 -0.1195033172097365E-01   7   4   6   2
  0.2076312571834664E-03   7   4   6   3
  0.8822827671942608E-02   7   4   6   4
 -0.1019752914956813E-01   7   4   6   5
 -0.3340147040393604E-02   7   4   7   1
 -0.1299051458249510E-01   7   4   7   2
  0.1021454503257081E-01   7   4   7   3
  0.1022783741554095E-01   7   4   7   4
  0.1988533018461742E-02   7   5   6   1
  0.2069858170802838E-01   7   5   6   2
 -0.3596278866811382E-03   7   5   6   3
 -0.1019752914956813E-01   7   5   6   4
  0.2059792007108706E-01   7   5   6   5
  0.5785304378712532E-02   7   5   7   1
  0.2250023127334588E-01   7   5   7   2
 -0.1769211097261258E-01   7   5   7   3
 -0.1153460448763190E-01   7   5   7   4
  0.2354685142740127E-01   7   5   7   5
  0.1408665868720288E-02  10   8   6   1
  0.2247460746075948E-01  10   8   6   2
  0.5286009341035104E-02  10   8   6   3
 -0.1088006572271132E-01  10   8   6   4
  0.1238506894951489E-01  10   8   6   5
  0.4016780116553296E-02  10   8   7   1
  0.1866057339661178E-01  10   8   7   2
 -0.1690376066397633E-01  10   8   7   3
 -0.1019752914956814E-01  10   8   7   4
  0.1179207565397589E-01  10   8   7   5
  0.2207470545737944E-01  10   8  10   8
  0.1988533018461741E-02  10   9   6   1
  0.2069858170802837E-01  10   9   6   2
 -0.3596278866812232E-03  10   9   6   3
 -0.1019752914956813E-01  10   9   6   4
  0.1179207565397589E-01  10   9   6   5
  0.5785304378712537E-02  10   9   7   1
  0.2250023127334589E-01  10   9   7   2
 -0.1769211097261270E-01  10   9   7   3
 -0.1153460448763193E-01  10   9   7   4
  0.1284186019856894E-01  10   9   7   5
  0.2059792007108702E-01  10   9  10   8
  0.2354685142740124E-01  10   9  10   9
  0.1408665868720288E-02  13  11   6   1
  0.2247460746075948E-01  13  11   6   2
  0.5286009341035104E-02  13  11   6   3
 -0.5285751476546084E-02  13  11   6   4
  0.1561494778546975E-01  13  11   6   5
  0.4016780116553296E-02  13  11   7   1
  0.1866057339661178E-01  13  11   7   2
 -0.1690376066397633E-01  13  11   7   3
 -0.5113472504907049E-02  13  11   7   4
  0.1472735712634628E-01  13  11   7   5
  0.1561494778546973E-01  13  11  10   8
  0.1472735712634626E-01  13  11  10   9
  0.2207470545737944E-01  13  11  13  11
  0.1988533018461741E-02  13  12   6   1
  0.2069858170802837E-01  13  12   6   2
 -0.3596278866812232E-03  13  12   6   3
 -0.5113472504907049E-02  13  12   6   4
  0.1472735712634628E-01  13  12   6   5
  0.5785304378712537E-02  13  12   7   1
  0.2250023127334589E-01  13  12   7   2
 -0.1769211097261270E-01  13  12   7   3
 -0.5354074919993009E-02  13  12   7   4
  0.1641019060817970E-01  13  12   7   5
  0.1472735712634625E-01  13  12  10   8
  0.1641019060817968E-01  13  12  10   9
  0.2059792007108702E-01  13  12  13  11
  0.2354685142740124E-01  13  12  13  12
  0.7603298512260799E-03   8   1   8   1
  0.1938942908124398E-02   8   2   8   1
  0.3049784750415806E-01   8   2   8   2
 -0.4547874265992032E-03   8   3   8   1
  0.9129746699624037E-02   8   3   8   2
  0.1476559766682237E-01   8   3   8   3
 -0.8132936185038968E-03   8   4   8   1
 -0.1297572066740066E-01   8   4   8   2
 -0.3051878915985495E-02   8   4   8   3
  0.9511487709763060E-02   8   4   8   4
 -0.1408665868720289E-02   8   5   8   1
 -0.2247460746075949E-01   8   5   8   2
 -0.5286009341035101E-02   8   5   8   3
  0.1088006572271132E-01   8   5   8   4
  0.2207470545737947E-01   8   5   8   5
  0.2506233156738205E-02   9   1   8   1
  0.5559091252130888E-02   9   1   8   2
 -0.1376133491360488E-02   9   1   8   3
 -0.2319089081567583E-02   9   1   8   4
 -0.4016780116553299E-02   9   1   8   5
  0.8344695793908168E-02   9   1   9   1
  0.2809045383682331E-02   9   2   8   1
  0.2400092498929782E-01   9   2   8   2
 -0.3720805645300421E-02   9   2   8   3
 -0.1077368707376660E-01   9   2   8   4
 -0.1866057339661179E-01   9   2   8   5
  0.8215380816539310E-02   9   2   9   1
  0.2943870565822544E-01   9   2   9   2
 -0.2229658385891948E-02   9   3   8   1
 -0.2387352123061797E-01   9   3   8   2
 -0.5936363307653897E-02   9   3   8   3
  0.9759390769663763E-02   9   3   8   4
  0.1690376066397630E-01   9   3   8   5
 -0.6518474416425821E-02   9   3   9   1
 -0.2150147579357040E-01   9   3   9   2
  0.2313826776521493E-01   9   3   9   3
 -0.1148080073501346E-02   9   4   8   1
 -0.1195033172097365E-01   9   4   8   2
  0.2076312571834351E-03   9   4   8   3
  0.8822827671942604E-02   9   4   8   4
  0.1019752914956813E-01   9   4   8   5
 -0.3340147040393604E-02   9   4   9   1
 -0.1299051458249509E-01   9   4   9   2
  0.1021454503257080E-01   9   4   9   3
  0.1022783741554097E-01   9   4   9   4
 -0.1988533018461742E-02   9   5   8   1
 -0.2069858170802838E-01   9   5   8   2
  0.3596278866811382E-03   9   5   8   3
  0.1019752914956813E-01   9   5   8   4
  0.2059792007108706E-01   9   5   8   5
 -0.5785304378712532E-02   9   5   9   1
 -0.2250023127334588E-01   9   5   9   2
  0.1769211097261258E-01   9   5   9   3
  0.1153460448763189E-01   9   5   9   4
  0.2354685142740127E-01   9   5   9   5
  0.1408665868720288E-02  10   6   8   1
  0.2247460746075948E-01  10   6   8   2
  0.5286009341035104E-02  10   6   8   3
 -0.1088006572271132E-01  10   6   8   4
 -0.1238506894951489E-01  10   6   8   5
  0.4016780116553296E-02  10   6   9   1
  0.1866057339661178E-01  10   6   9   2
 -0.1690376066397633E-01  10   6   9   3
 -0.1019752914956813E-01  10   6   9   4
 -0.1179207565397589E-01  10   6   9   5
  0.2207470545737944E-01  10   6  10   6
  0.1988533018461741E-02  10   7   8   1
  0.2069858170802837E-01  10   7   8   2
 -0.3596278866812319E-03  10   7   8   3
 -0.1019752914956813E-01  10   7   8   4
 -0.1179207565397589E-01  10   7   8   5
  0.5785304378712537E-02  10   7   9   1
  0.2250023127334588E-01  10   7   9   2
 -0.1769211097261267E-01  10   7   9   3
 -0.1153460448763191E-01  10   7   9   4
 -0.1284186019856893E-01  10   7   9   5
  0.2059792007108702E-01  10   7  10   6
  0.2354685142740124E-01  10   7  10   7
  0.1408665868720288E-02  14  11   8   1
  0.2247460746075948E-01  14  11   8   2
  0.5286009341035104E-02  14  11   8   3
 -0.5285751476546084E-02  14  11   8   4
 -0.1561494778546975E-01  14  11   8   5
  0.4016780116553296E-02  14  11   9   1
  0.1866057339661178E-01  14  11   9   2
 -0.1690376066397633E-01  14  11   9   3
 -0.5113472504907049E-02  14  11   9   4
 -0.1472735712634628E-01  14  11   9   5
  0.1561494778546973E-01  14  11  10   6
  0.1472735712634626E-01  14  11  10   7
  0.2207470545737944E-01  14  11  14  11
  0.1988533018461741E-02  14  12   8   1
  0.2069858170802837E-01  14  12   8   2
 -0.3596278866812232E-03  14  12   8   3
 -0.5113472504907049E-02  14  12   8   4
 -0.1472735712634628E-01  14  12   8   5
  0.5785304378712537E-02  14  12   9   1
  0.2250023127334589E-01  14  12   9   2
 -0.1769211097261270E-01  14  12   9   3
 -0.5354074919993009E-02  14  12   9   4
 -0.1641019060817970E-01  14  12   9   5
  0.1472735712634625E-01  14  12  10   6
  0.1641019060817968E-01  14  12  10   7
  0.2059792007108702E-01  14  12  14  11
  0.2354685142740124E-01  14  12  14  12
  0.8916042168280819E-02   8   6   8   6
  0.6448150720178922E-03   8   7   8   6
  0.3692584939996247E-02   8   7   8   7
  0.6448150720178924E-03   9   6   8   6
  0.3692584939996251E-02   9   6   8   7
  0.3692584939996252E-02   9   6   9   6
  0.7099746787296191E-02   9   7   8   6
  0.3492936087077191E-02   9   7   8   7
  0.3492936087077222E-02   9   7   9   6
  0.1069974974391259E-01   9   7   9   7
  0.4154659754867932E-03  10   1   8   6
  0.5424372591237813E-03  10   1   8   7
  0.5424372591237815E-03  10   1   9   6
  0.1236634109374718E-02  10   1   9   7
  0.2543546415576862E-03  10   1  10   1
  0.1176538373792893E-01  10   2   8   6
  0.6513121920995044E-02  10   2   8   7
  0.6513121920995034E-02  10   2   9   6
  0.1412488642543696E-01  10   2   9   7
  0.1231214625279283E-02  10   2  10   1
  0.2464697167940918E-01  10   2  10   2
 -0.6507745288476212E-03  10   3   8   6
 -0.3537039319686539E-02  10   3   8   7
 -0.3537039319686523E-02  10   3   9   6
 -0.5195167012224431E-02  10   3   9   7
 -0.6966665317608173E-03  10   3  10   1
 -0.6697798998551349E-02  10   3  10   2
  0.5087650559378090E-02  10   3  10   3
 -0.8090997896644202E-02  10   4   8   6
 -0.4468561280213921E-02  10   4   8   7
 -0.4468561280213917E-02  10   4   9   6
 -0.9364216306627088E-02  10   4   9   7
 -0.7612615786068696E-03  10   4  10   1
 -0.1700134333557772E-01  10   4  10   2
  0.4411746146098579E-02  10   4  10   3
  0.1522066377631822E-01  10   4  10   4
  0.0000000000000000E+00  10   5   8   6
  0.0000000000000000E+00  10   5   8   7
  0.0000000000000000E+00  10   5   9   6
  0.0000000000000000E+00  10   5   9   7
  0.0000000000000000E+00  10   5  10   1
  0.0000000000000000E+00  10   5  10   2
  0.0000000000000000E+00  10   5  10   3
  0.0000000000000000E+00  10   5  10   4
  0.7951093017479646E-02  10   5  10   5
  0.7007009720460334E-02  14  13   8   6
  0.3869887587032766E-02  14  13   8   7
  0.3869887587032767E-02  14  13   9   6
  0.8109649208071550E-02  14  13   9   7
  0.6592718659985928E-03  14  13  10   1
  0.1472359522707157E-01  14  13  10   2
 -0.3820684237569463E-02  14  13  10   3
 -0.6295632951762710E-02  14  13  10   4
  0.0000000000000000E+00  14  13  10   5
  0.1340327108660856E-01  14  13  14  13
  0.7603298512260799E-03  11   1  11   1
  0.1938942908124398E-02  11   2  11   1
  0.3049784750415806E-01  11   2  11   2
 -0.4547874265992029E-03  11   3  11   1
  0.9129746699624037E-02  11   3  11   2
  0.1476559766682237E-01  11   3  11   3
  0.1626587237007794E-02  11   4  11   1
  0.2595144133480133E-01  11   4  11   2
  0.6103757831970968E-02  11   4  11   3
  0.2835631433118767E-01  11   4  11   4
  0.0000000000000000E+00  11   5  11   1
  0.0000000000000000E+00  11   5  11   2
  0.0000000000000000E+00  11   5  11   3
  0.0000000000000000E+00  11   5  11   4
  0.3229878835954858E-02  11   5  11   5
  0.2506233156738205E-02  12   1  11   1
  0.5559091252130889E-02  12   1  11   2
 -0.1376133491360487E-02  12   1  11   3
  0.4638178163135168E-02  12   1  11   4
  0.0000000000000000E+00  12   1  11   5
  0.8344695793908168E-02  12   1  12   1
  0.2809045383682331E-02  12   2  11   1
  0.2400092498929782E-01  12   2  11   2
 -0.3720805645300421E-02  12   2  11   3
  0.2154737414753319E-01  12   2  11   4
  0.0000000000000000E+00  12   2  11   5
  0.8215380816539313E-02  12   2  12   1
  0.2943870565822544E-01  12   2  12   2
 -0.2229658385891945E-02  12   3  11   1
 -0.2387352123061797E-01  12   3  11   2
 -0.5936363307653902E-02  12   3  11   3
 -0.1951878153932750E-01  12   3  11   4
  0.0000000000000000E+00  12   3  11   5
 -0.6518474416425805E-02  12   3  12   1
 -0.2150147579357040E-01  12   3  12   2
  0.2313826776521490E-01  12   3  12   3
  0.2296160147002692E-02  12   4  11   1
  0.2390066344194729E-01  12   4  11   2
 -0.4152625143668573E-03  12   4  11   3
  0.2648546627065927E-01  12   4  11   4
  0.0000000000000000E+00  12   4  11   5
  0.6680294080787207E-02  12   4  12   1
  0.2598102916499018E-01  12   4  12   2
 -0.2042909006514146E-01  12   4  12   3
  0.3020635843333146E-01  12   4  12   4
  0.0000000000000000E+00  12   5  11   1
  0.0000000000000000E+00  12   5  11   2
  0.0000000000000000E+00  12   5  11   3
  0.0000000000000000E+00  12   5  11   4
  0.2935281472370391E-02  12   5  11   5
  0.0000000000000000E+00  12   5  12   1
  0.0000000000000000E+00  12   5  12   2
  0.0000000000000000E+00  12   5  12   3
  0.0000000000000000E+00  12   5  12   4
  0.3568330409610763E-02  12   5  12   5
  0.1408665868720288E-02  13   6  11   1
  0.2247460746075948E-01  13   6  11   2
  0.5286009341035104E-02  13   6  11   3
  0.1616581719925741E-01  13   6  11   4
  0.3229878835954855E-02  13   6  11   5
  0.4016780116553296E-02  13   6  12   1
  0.1866057339661178E-01  13   6  12   2
 -0.1690376066397633E-01  13   6  12   3
  0.1531100165447519E-01  13   6  12   4
  0.2935281472370388E-02  13   6  12   5
  0.2207470545737944E-01  13   6  13   6
  0.1988533018461742E-02  13   7  11   1
  0.2069858170802837E-01  13   7  11   2
 -0.3596278866812319E-03  13   7  11   3