 &FCI NORB= 22,NELEC=  8,MS2= 0,
  ORBSYM=1,1,1,1,1,1,1,2,2,2,3,3,3,4,4,5,5,5,6,6,7,7,
  ISYM=1,
  OCC=  1,  1,  1,  0,  1,  0,  0,  0,
  CLOSED=  1,  1,  1,  0,  1,  0,  0,  0,
 /
  0.1021248406399645E+01   1   1   1   1
 -0.1149122855124007E+00   2   1   1   1
  0.2365077973485822E-01   2   1   2   1
  0.3974481363709004E+00   2   2   1   1
 -0.8971210722902183E-02   2   2   2   1
  0.3162830438345201E+00   2   2   2   2
 -0.1672217097353456E-16   3   1   1   1
  0.2924987058773028E-17   3   1   2   1
 -0.1347442414932244E-17   3   1   2   2
  0.3361677557050718E-01   3   1   3   1
  0.3332767872990257E-17   3   2   1   1
 -0.8741258827256892E-18   3   2   2   1
  0.1903420639019102E-18   3   2   2   2
  0.1096559447075142E-01   3   2   3   1
  0.1282295127370544E-01   3   2   3   2
  0.6461575903086602E+00   3   3   1   1
 -0.3286809539883009E-01   3   3   2   1
  0.3729197358934735E+00   3   3   2   2
 -0.9190688845885683E-02   3   3   3   1
 -0.4885116734609043E-02   3   3   3   2
  0.6075576851976018E+00   3   3   3   3
 -0.1471588913301145E-15   4   1   1   1
  0.2451439698725261E-16   4   1   2   1
 -0.1283343050509185E-16   4   1   2   2
 -0.2108421333607959E-17   4   1   3   1
 -0.7729320032617924E-17   4   1   3   2
 -0.2652644841445726E-01   4   1   3   3
  0.3361677557050718E-01   4   1   4   1
  0.1731786850718127E-16   4   2   1   1
 -0.6821774928274878E-17   4   2   2   1
 -0.2085559954057294E-17   4   2   2   2
 -0.8059973467678394E-17   4   2   3   1
  0.1221759565209651E-17   4   2   3   2
 -0.1409957395274221E-01   4   2   3   3
  0.1096559447075135E-01   4   2   4   1
  0.1282295127370545E-01   4   2   4   2
  0.2155056737893350E-17   4   3   1   1
  0.9630197144964842E-17   4   3   2   1
  0.7524051569068937E-17   4   3   2   2
 -0.2652644841445727E-01   4   3   3   1
 -0.1409957395274231E-01   4   3   3   2
 -0.3650889937081862E-17   4   3   3   3
  0.9190688845885683E-02   4   3   4   1
  0.4885116734609033E-02   4   3   4   2
  0.3586967685064971E-01   4   3   4   3
  0.6461575903086602E+00   4   4   1   1
 -0.3286809539882994E-01   4   4   2   1
  0.3729197358934737E+00   4   4   2   2
  0.9190688845885685E-02   4   4   3   1
  0.4885116734609047E-02   4   4   3   2
  0.5358183314963024E+00   4   4   3   3
  0.2652644841445726E-01   4   4   4   1
  0.1409957395274222E-01   4   4   4   2
  0.5117434254131581E-16   4   4   4   3
  0.6075576851976023E+00   4   4   4   4
 -0.1979087733530124E+00   5   1   1   1
  0.4815696390028520E-01   5   1   2   1
 -0.1187681763365654E-01   5   1   2   2
  0.1033535350055683E-16   5   1   3   1
 -0.2831635697694546E-17   5   1   3   2
 -0.2306438311985997E-01   5   1   3   3
  0.9249976982265353E-16   5   1   4   1
 -0.2363030238876874E-16   5   1   4   2
 -0.2073997417793225E-16   5   1   4   3
 -0.2306438311986017E-01   5   1   4   4
  0.1219668073779343E+00   5   1   5   1
  0.1431630208416414E+00   5   2   1   1
 -0.1969761307490342E-01   5   2   2   1
  0.2923874993822886E-01   5   2   2   2
 -0.5491053690046331E-17   5   2   3   1
 -0.1087958105336046E-17   5   2   3   2
  0.8099053978233779E-01   5   2   3   3
 -0.4971960049826200E-16   5   2   4   1
 -0.1261293117064179E-16   5   2   4   2
 -0.3009747685844655E-16   5   2   4   3
  0.8099053978233756E-01   5   2   4   4
 -0.3483078951824300E-01   5   2   5   1
  0.2932449155030856E-01   5   2   5   2
  0.2604966384921190E-16   5   3   1   1
 -0.6379124054201962E-17   5   3   2   1
  0.9670428522494090E-18   5   3   2   2
  0.2910823469804896E-01   5   3   3   1
  0.1573862767710239E-01   5   3   3   2
 -0.9931177191248673E-02   5   3   3   3
 -0.7699743843040511E-17   5   3   4   1
  0.1567952116205500E-16   5   3   4   2
 -0.2866366861896577E-01   5   3   4   3
  0.9931177191248695E-02   5   3   4   4
 -0.1296647863678246E-16   5   3   5   1
  0.1625126795403229E-17   5   3   5   2
  0.3547751821823700E-01   5   3   5   3
  0.2368505028091153E-15   5   4   1   1
 -0.5805840422576332E-16   5   4   2   1
  0.8750028925690708E-17   5   4   2   2
 -0.7330106970657365E-17   5   4   3   1
  0.1776086317419089E-16   5   4   3   2
 -0.2866366861896588E-01   5   4   3   3
  0.2910823469804890E-01   5   4   4   1
  0.1573862767710254E-01   5   4   4   2
  0.9931177191248707E-02   5   4   4   3
  0.2866366861896608E-01   5   4   4   4
 -0.1137314700523244E-15   5   4   5   1
  0.1432264502763155E-16   5   4   5   2
  0.4352480356073339E-16   5   4   5   3
  0.3547751821823737E-01   5   4   5   4
  0.8010555211002908E+00   5   5   1   1
 -0.7296854996931929E-01   5   5   2   1
  0.3741595043883205E+00   5   5   2   2
 -0.1691936346337597E-16   5   5   3   1
 -0.3069746501499644E-18   5   5   3   2
  0.5706831883183797E+00   5   5   3   3
 -0.1487434106272044E-15   5   5   4   1
 -0.1169178192694715E-16   5   5   4   2
  0.3975293003628203E-15   5   5   4   3
  0.5706831883183833E+00   5   5   4   4
 -0.1229536003761955E+00   5   5   5   1
  0.1081534085827889E+00   5   5   5   2
  0.1042295477050982E-16   5   5   5   3
  0.9826533157479688E-16   5   5   5   4
  0.6674897698432400E+00   5   5   5   5
  0.1428984249676037E-15   6   1   1   1
 -0.4907988712812313E-16   6   1   2   1
  0.1209858379185164E-16   6   1   2   2
  0.3989783868073818E-02   6   1   3   1
 -0.2493611658335878E-03   6   1   3   2
 -0.1735787412002258E-01   6   1   3   3
  0.3629859114004215E-01   6   1   4   1
 -0.2268658981060929E-02   6   1   4   2
  0.3955490271237353E-02   6   1   4   3
  0.1735787412002249E-01   6   1   4   4
 -0.4587067425988098E-16   6   1   5   1
  0.1028972575490941E-16   6   1   5   2
  0.1144202915560351E-02   6   1   5   3
  0.1040982549092827E-01   6   1   5   4
  0.2312900322426772E-16   6   1   5   5
  0.8666446090079181E-01   6   1   6   1
 -0.1791827175643295E-15   6   2   1   1
  0.3275558389994075E-16   6   2   2   1
 -0.2695385612767752E-16   6   2   2   2
 -0.1638186042703408E-02   6   2   3   1
 -0.7491965870366248E-03   6   2   3   2
  0.1228527953146181E-01   6   2   3   3
 -0.1490402671965349E-01   6   2   4   1
 -0.6816103702751822E-02   6   2   4   2
 -0.2799553869910476E-02   6   2   4   3
 -0.1228527953146150E-01   6   2   4   4
  0.4123483662719931E-16   6   2   5   1
 -0.2073582268043461E-16   6   2   5   2
 -0.1182355517750923E-02   6   2   5   3
 -0.1075693344304724E-01   6   2   5   4
 -0.9624146214808055E-16   6   2   5   5
 -0.2099870589059784E-01   6   2   6   1
  0.9482611405704819E-02   6   2   6   2
  0.1587530245746988E-01   6   3   1   1
 -0.3145750744710951E-02   6   3   2   1
  0.1050870929970766E-02   6   3   2   2
 -0.4446885699903202E-02   6   3   3   1
  0.4840885362513271E-02   6   3   3   2
  0.4820199878892218E-02   6   3   3   3
  0.1013350655826084E-02   6   3   4   1
 -0.1103134797682905E-02   6   3   4   2
 -0.1717183946939055E-02   6   3   4   3
  0.5197690717783461E-02   6   3   4   4
 -0.5213006728591540E-02   6   3   5   1
  0.2422345863590199E-02   6   3   5   2
  0.2400971646863190E-02   6   3   5   3
 -0.5471303642955236E-03   6   3   5   4
  0.9511677205128842E-02   6   3   5   5
  0.2066755430650035E-02   6   3   6   1
 -0.1831639380553987E-03   6   3   6   2
  0.8776252096723875E-02   6   3   6   3
  0.1444316615091251E+00   6   4   1   1
 -0.2861967562314918E-01   6   4   2   1
  0.9560701904983218E-02   6   4   2   2
  0.1013350655826084E-02   6   4   3   1
 -0.1103134797682904E-02   6   4   3   2
  0.4728798763936552E-01   6   4   3   3
  0.4446885699903119E-02   6   4   4   1
 -0.4840885362513182E-02   6   4   4   2
 -0.1887454194456559E-03   6   4   4   3
  0.4385361974548722E-01   6   4   4   4
 -0.4742733093028090E-01   6   4   5   1
  0.2203822187107177E-01   6   4   5   2
 -0.5471303642955223E-03   6   4   5   3
 -0.2400971646863012E-02   6   4   5   4
  0.8653613662830072E-01   6   4   5   5
  0.1795920146809720E-01   6   4   6   1
 -0.1591614574440678E-02   6   4   6   2
  0.4922537051966953E-02   6   4   6   3
  0.5301985963503072E-01   6   4   6   4
  0.6333437180967350E-16   6   5   1   1
 -0.4917906540459317E-17   6   5   2   1
  0.1172246250393744E-16   6   5   2   2
 -0.1604903268119515E-02   6   5   3   1
 -0.3744790265667476E-03   6   5   3   2
  0.9520648493867580E-02   6   5   3   3
 -0.1460122389459467E-01   6   5   4   1
 -0.3406966774475894E-02   6   5   4   2
 -0.2169553266314296E-02   6   5   4   3
 -0.9520648493869337E-02   6   5   4   4
 -0.3407845076808304E-16   6   5   5   1
  0.1983676657450549E-16   6   5   5   2
 -0.6492371575134375E-03   6   5   5   3
 -0.5906684400145385E-02   6   5   5   4
  0.7496332096818013E-16   6   5   5   5
 -0.3506468832045638E-01   6   5   6   1
  0.1161480631393215E-01   6   5   6   2
 -0.4154737985768303E-03   6   5   6   3
 -0.3610285737103417E-02   6   5   6   4
  0.2319751286587282E-01   6   5   6   5
  0.9900112736784403E+00   6   6   1   1
 -0.1085018687782185E+00   6   6   2   1
  0.3947307131188215E+00   6   6   2   2
  0.3537040925769758E-02   6   6   3   1
  0.4161931954998348E-03   6   6   3   2
  0.6190269612611404E+00   6   6   3   3
  0.3073533986884215E-01   6   6   4   1
  0.3616536981969758E-02   6   6   4   2
  0.5122030956510655E-02   6   6   4   3
  0.6650636137122103E+00   6   6   4   4
 -0.1803029162135514E+00   6   6   5   1
  0.1354850735140258E+00   6   6   5   2
  0.1684757636405055E-02   6   6   5   3
  0.1463980757877924E-01   6   6   5   4
  0.7721026942005343E+00   6   6   5   5
  0.6030192042418973E-01   6   6   6   1
 -0.1760115443602441E-01   6   6   6   2
  0.1762552002198577E-01   6   6   6   3
  0.1603549380276482E+00   6   6   6   4
 -0.2571256858054500E-01   6   6   6   5
  0.1046853593234627E+01   6   6   6   6
 -0.4496428597810308E-18   7   1   1   1
  0.1730653757353706E-18   7   1   2   1
 -0.2005972270394356E-19   7   1   2   2
  0.3629859114004221E-01   7   1   3   1
 -0.2268658981061008E-02   7   1   3   2
 -0.3955490271237347E-02   7   1   3   3
 -0.3989783868073827E-02   7   1   4   1
  0.2493611658335984E-03   7   1   4   2
 -0.1735787412002251E-01   7   1   4   3
  0.3955490271237349E-02   7   1   4   4
 -0.9569684818531367E-19   7   1   5   1
  0.2452582055166720E-19   7   1   5   2
  0.1040982549092809E-01   7   1   5   3
 -0.1144202915560326E-02   7   1   5   4
 -0.2498907814339785E-18   7   1   5   5
  0.3066428628000766E-17   7   1   6   1
 -0.9418068804764736E-18   7   1   6   2
 -0.1795920146809729E-01   7   1   6   3
  0.2066755430650049E-02   7   1   6   4
 -0.2223822540026495E-18   7   1   6   5
  0.3075640931644352E-03   7   1   6   6
  0.8666446090079163E-01   7   1   7   1
  0.3963982138853632E-18   7   2   1   1
 -0.1086212144151894E-18   7   2   2   1
 -0.2059780601283169E-19   7   2   2   2
 -0.1490402671965349E-01   7   2   3   1
 -0.6816103702751627E-02   7   2   3   2
  0.2799553869910490E-02   7   2   3   3
  0.1638186042703410E-02   7   2   4   1
  0.7491965870366034E-03   7   2   4   2
  0.1228527953146172E-01   7   2   4   3
 -0.2799553869910489E-02   7   2   4   4
 -0.8999031230333994E-20   7   2   5   1
  0.4177877824857425E-19   7   2   5   2
 -0.1075693344304751E-01   7   2   5   3
  0.1182355517750955E-02   7   2   5   4
  0.3144347560758825E-18   7   2   5   5
 -0.8456381908519336E-18   7   2   6   1
 -0.1101948988728706E-19   7   2   6   2
  0.1591614574440486E-02   7   2   6   3
 -0.1831639380553792E-03   7   2   6   4
 -0.1407709967887267E-17   7   2   6   5
 -0.8977298010879490E-04   7   2   6   6
 -0.2099870589059773E-01   7   2   7   1
  0.9482611405704529E-02   7   2   7   2
  0.1444316615091254E+00   7   3   1   1
 -0.2861967562314900E-01   7   3   2   1
  0.9560701904983388E-02   7   3   2   2
 -0.1013350655826090E-02   7   3   3   1
  0.1103134797682903E-02   7   3   3   2
  0.4385361974548765E-01   7   3   3   3
 -0.4446885699903203E-02   7   3   4   1
  0.4840885362513228E-02   7   3   4   2
  0.1887454194456230E-03   7   3   4   3
  0.4728798763936575E-01   7   3   4   4
 -0.4742733093028145E-01   7   3   5   1
  0.2203822187107105E-01   7   3   5   2
  0.5471303642955269E-03   7   3   5   3
  0.2400971646863056E-02   7   3   5   4
  0.8653613662830505E-01   7   3   5   5
 -0.1795920146809714E-01   7   3   6   1
  0.1591614574440252E-02   7   3   6   2
  0.4922537051966968E-02   7   3   6   3
  0.3654948333156989E-01   7   3   6   4
  0.3610285737105165E-02   7   3   6   5
  0.1321089101668868E+00   7   3   6   6
 -0.2066755430650048E-02   7   3   7   1
  0.1831639380553821E-03   7   3   7   2
  0.5301985963503080E-01   7   3   7   3
 -0.1587530245746991E-01   7   4   1   1
  0.3145750744710943E-02   7   4   2   1
 -0.1050870929970783E-02   7   4   2   2
 -0.4446885699903155E-02   7   4   3   1
  0.4840885362513219E-02   7   4   3   2
 -0.5197690717783518E-02   7   4   3   3
  0.1013350655826092E-02   7   4   4   1
 -0.1103134797682903E-02   7   4   4   2
 -0.1717183946939114E-02   7   4   4   3
 -0.4820199878892216E-02   7   4   4   4
  0.5213006728591593E-02   7   4   5   1
 -0.2422345863590164E-02   7   4   5   2
  0.2400971646863191E-02   7   4   5   3
 -0.5471303642955232E-03   7   4   5   4
 -0.9511677205129040E-02   7   4   5   5
  0.2066755430650033E-02   7   4   6   1
 -0.1831639380553537E-03   7   4   6   2
  0.7694124206737094E-02   7   4   6   3
 -0.4922537051966975E-02   7   4   6   4
 -0.4154737985770269E-03   7   4   6   5
 -0.1452083902042171E-01   7   4   6   6
 -0.1795920146809729E-01   7   4   7   1
  0.1591614574440523E-02   7   4   7   2
 -0.4922537051966960E-02   7   4   7   3
  0.8776252096723931E-02   7   4   7   4
 -0.9415439826503041E-18   7   5   1   1
  0.1623096001188432E-18   7   5   2   1
 -0.9839663884421320E-19   7   5   2   2
 -0.1460122389459479E-01   7   5   3   1
 -0.3406966774476699E-02   7   5   3   2
  0.2169553266314306E-02   7   5   3   3
  0.1604903268119533E-02   7   5   4   1
  0.3744790265668396E-03   7   5   4   2
  0.9520648493868522E-02   7   5   4   3
 -0.2169553266314309E-02   7   5   4   4
  0.4475627769038195E-18   7   5   5   1
 -0.1706205802743152E-18   7   5   5   2
 -0.5906684400143962E-02   7   5   5   3
  0.6492371575132776E-03   7   5   5   4
 -0.5593980729406454E-18   7   5   5   5
 -0.3525852444525463E-18   7   5   6   1
 -0.1392794327847317E-17   7   5   6   2
  0.3610285737104386E-02   7   5   6   3
 -0.4154737985769370E-03   7   5   6   4
  0.4982159304846100E-18   7   5   6   5
 -0.1311444607862133E-03   7   5   6   6
 -0.3506468832045610E-01   7   5   7   1
  0.1161480631393262E-01   7   5   7   2
  0.4154737985769404E-03   7   5   7   3
  0.3610285737104402E-02   7   5   7   4
  0.2319751286587212E-01   7   5   7   5
  0.1127005628367051E-16   7   6   1   1
 -0.2020402654113703E-17   7   6   2   1
  0.7476383730119479E-18   7   6   2   2
 -0.3073533986884225E-01   7   6   3   1
 -0.3616536981969199E-02   7   6   3   2
  0.5122030956510641E-02   7   6   3   3
  0.3537040925769772E-02   7   6   4   1
  0.4161931954997705E-03   7   6   4   2
  0.2301832622553477E-01   7   6   4   3
 -0.5122030956510637E-02   7   6   4   4
 -0.5582482901035071E-17   7   6   5   1
  0.1424504376139995E-17   7   6   5   2
 -0.1463980757878018E-01   7   6   5   3
  0.1684757636405155E-02   7   6   5   4
  0.2219697971419279E-16   7   6   5   5
  0.3075640931644354E-03   7   6   6   1
 -0.8977298010879598E-04   7   6   6   2
  0.1412301393038089E-01   7   6   6   3
 -0.1552340500782036E-02   7   6   6   4
 -0.1311444607862148E-03   7   6   6   5
  0.1033848184425307E-16   7   6   6   6
 -0.6030192042418926E-01   7   6   7   1
  0.1760115443602394E-01   7   6   7   2
  0.1552340500782044E-02   7   6   7   3
  0.1412301393038091E-01   7   6   7   4
  0.2571256858054408E-01   7   6   7   5
  0.5713436333943241E-01   7   6   7   6
  0.9900112736784399E+00   7   7   1   1
 -0.1085018687782186E+00   7   7   2   1
  0.3947307131188215E+00   7   7   2   2
 -0.3537040925769801E-02   7   7   3   1
 -0.4161931954997488E-03   7   7   3   2
  0.6650636137122103E+00   7   7   3   3
 -0.3073533986884253E-01   7   7   4   1
 -0.3616536981969019E-02   7   7   4   2
 -0.5122030956510691E-02   7   7   4   3
  0.6190269612611403E+00   7   7   4   4
 -0.1803029162135488E+00   7   7   5   1
  0.1354850735140269E+00   7   7   5   2
 -0.1684757636405001E-02   7   7   5   3
 -0.1463980757877874E-01   7   7   5   4
  0.7721026942005181E+00   7   7   5   5
 -0.6030192042418962E-01   7   7   6   1
  0.1760115443602404E-01   7   7   6   2
  0.1452083902042168E-01   7   7   6   3
  0.1321089101668864E+00   7   7   6   4
  0.2571256858054429E-01   7   7   6   5
  0.9325848665557632E+00   7   7   6   6
 -0.3075640931644390E-03   7   7   7   1
  0.8977298010879597E-04   7   7   7   2
  0.1603549380276483E+00   7   7   7   3
 -0.1762552002198577E-01   7   7   7   4
  0.1311444607862105E-03   7   7   7   5
  0.1225148454908620E-16   7   7   7   6
  0.1046853593234628E+01   7   7   7   7
  0.9889787499538635E+00   8   8   1   1
 -0.1091719527626833E+00   8   8   2   1
  0.3948669398831390E+00   8   8   2   2
  0.3188095546416011E-01   8   8   3   1
  0.5275126107385990E-02   8   8   3   2
  0.6409189205245016E+00   8   8   3   3
 -0.2347885445975824E-01   8   8   4   1
 -0.3884887272949481E-02   8   8   4   2
 -0.2556612109750704E-01   8   8   4   3
  0.6250320228732962E+00   8   8   4   4
 -0.1917692503614628E+00   8   8   5   1
  0.1387180171772369E+00   8   8   5   2
  0.1828274543112954E-01   8   8   5   3
 -0.1346439944639852E-01   8   8   5   4
  0.7840506644469366E+00   8   8   5   5
 -0.3551706018946487E-01   8   8   6   1
  0.1096949279648911E-01   8   8   6   2
  0.4310633154261240E-02   8   8   6   3
  0.1300009725126794E+00   8   8   6   4
  0.1661963440200277E-01   8   8   6   5
  0.9308568374760117E+00   8   8   6   6
  0.6127652870741498E-01   8   8   7   1
 -0.1892534001024181E-01   8   8   7   2
  0.1391289936372075E+00   8   8   7   3
 -0.2527096667195246E-01   8   8   7   4
 -0.2867336145245456E-01   8   8   7   5
 -0.4535789600502525E-01   8   8   7   6
  0.9828211547853556E+00   8   8   7   7
  0.1032198941426008E+01   8   8   8   8
 -0.1297273406126061E+00   9   8   1   1
  0.2416612174966539E-01   9   8   2   1
 -0.1384927398423547E-01   9   8   2   2
 -0.3306914263104948E-02   9   8   3   1
  0.2630875543076668E-02   9   8   3   2
 -0.4792987870113619E-01   9   8   3   3
  0.2435389955035198E-02   9   8   4   1
 -0.1937518593100963E-02   9   8   4   2
  0.1642178334283754E-03   9   8   4   3
 -0.4782783303287744E-01   9   8   4   4
  0.4654380967961244E-01   9   8   5   1
 -0.2330309682959267E-01   9   8   5   2
  0.7350894422741672E-03   9   8   5   3
 -0.5413594975051633E-03   9   8   5   4
 -0.8693756545484624E-01   9   8   5   5
  0.7730215291606920E-02   9   8   6   1
 -0.1038428651393207E-02   9   8   6   2
  0.3782020136801189E-03   9   8   6   3
 -0.2796289652924656E-01   9   8   6   4
 -0.3102330238353671E-02   9   8   6   5
 -0.1179502118822342E+00   9   8   6   6
 -0.1333671077233902E-01   9   8   7   1
  0.1791570099784636E-02   9   8   7   2
 -0.3112045802587536E-01   9   8   7   3
  0.6872388357338791E-02   9   8   7   4
  0.5352358187763743E-02   9   8   7   5
  0.8228718078364632E-02   9   8   7   6
 -0.1273774506859455E+00   9   8   7   7
 -0.1367680292898601E+00   9   8   8   8
  0.2971622508083813E-01   9   8   9   8
  0.3301017556349471E+00   9   9   1   1
 -0.6698078569866268E-02   9   9   2   1
  0.2800924983474607E+00   9   9   2   2
  0.6869818303786308E-02   9   9   3   1
  0.8457935622686236E-02   9   9   3   2
  0.3126332003009638E+00   9   9   3   3
 -0.5059304583920228E-02   9   9   4   1
 -0.6228879800616152E-02   9   9   4   2
 -0.9654897297060882E-02   9   9   4   3
  0.3066336055792498E+00   9   9   4   4
 -0.1111745062624736E-01   9   9   5   1
  0.1650617933405796E-01   9   9   5   2
  0.6559743989977961E-02   9   9   5   3
 -0.4830949141632267E-02   9   9   5   4
  0.3141657356895924E+00   9   9   5   5
 -0.2182402690754295E-02   9   9   6   1
  0.3717987944756291E-02   9   9   6   2
  0.2909682132494658E-02   9   9   6   3
  0.8396023394737689E-02   9   9   6   4
  0.2161959992367203E-02   9   9   6   5
  0.3249361979269841E+00   9   9   6   6
  0.3765234521600884E-02   9   9   7   1
 -0.6414534136985400E-02   9   9   7   2
  0.6578537259525730E-02   9   9   7   3
  0.1263743305299629E-02   9   9   7   4
 -0.3729965341439720E-02   9   9   7   5
 -0.5657635671521476E-02   9   9   7   6
  0.3314178736912882E+00   9   9   7   7
  0.3376414687359949E+00   9   9   8   8
 -0.6239267804915398E-02   9   9   9   8
  0.2814767933609554E+00   9   9   9   9
 -0.2380609846580893E+00  10   8   1   1
  0.5566404509733776E-01  10   8   2   1
 -0.1409477911460347E-01  10   8   2   2
  0.3446551245239816E-02  10   8   3   1
  0.7642266226306591E-02  10   8   3   2
 -0.3539108449591069E-01  10   8   3   3
 -0.2538226157181838E-02  10   8   4   1
 -0.5628176880454309E-02  10   8   4   2
 -0.1056192167732406E-01  10   8   4   3
 -0.4195430807009843E-01  10   8   4   4
  0.1341987156150028E+00  10   8   5   1
 -0.4188018958838341E-01  10   8   5   2
  0.1351669028443644E-01  10   8   5   3
 -0.9954419475372282E-02  10   8   5   4
 -0.1512224961642753E+00  10   8   5   5
  0.1337917425263696E-01  10   8   6   1
 -0.1102532564316896E-02  10   8   6   2
 -0.1599132321668897E-03  10   8   6   3
 -0.5515946708134821E-01  10   8   6   4
 -0.7512461401136751E-02  10   8   6   5
 -0.2101270105569733E+00  10   8   6   6
 -0.2308269183316035E-01  10   8   7   1
  0.1902166676178439E-02  10   8   7   2
 -0.6055932042927391E-01  10   8   7   3
  0.1255939451897162E-01  10   8   7   4
  0.1296102645473781E-01  10   8   7   5
  0.1179113556748665E-01  10   8   7   6
 -0.2236355363933240E+00  10   8   7   7
 -0.2526993460797329E+00  10   8   8   8
  0.6350600971614272E-01  10   8   9   8
 -0.1000963047233299E-01  10   8   9   9
  0.1811056176787058E+00  10   8  10   8
  0.1292222980783710E+00  10   9   1   1
 -0.1714009909664951E-01  10   9   2   1
  0.3421259666967848E-01  10   9   2   2
  0.4245388523821563E-02  10   9   3   1
  0.1955792660362135E-02  10   9   3   2
  0.7470294753045340E-01  10   9   3   3
 -0.3126532998297022E-02  10   9   4   1
 -0.1440351161298405E-02  10   9   4   2
 -0.4350975180740085E-02  10   9   4   3
  0.7199923283256389E-01  10   9   4   4
 -0.3398201708306450E-01  10   9   5   1
  0.2495548700517916E-01  10   9   5   2
  0.3081706563319729E-02  10   9   5   3
 -0.2269534862880535E-02  10   9   5   4
  0.9878940996989700E-01  10   9   5   5
 -0.4285728546805223E-02  10   9   6   1
  0.1880716668725364E-02  10   9   6   2
  0.1746704490666257E-02  10   9   6   3
  0.1807213427690828E-01  10   9   6   4
  0.3144761729889621E-02  10   9   6   5
  0.1191689997276716E+00  10   9   6   6
  0.7394040129717653E-02  10   9   7   1
 -0.3244744591103429E-02  10   9   7   2
  0.1829140982260951E-01  10   9   7   3
 -0.2250218725293019E-02  10   9   7   4
 -0.5425563979441446E-02  10   9   7   5
 -0.6013038175636405E-02  10   9   7   6
  0.1260578427136288E+00  10   9   7   7
  0.1367842435999702E+00  10   9   8   8
 -0.2167021491835536E-01  10   9   9   8
  0.1929008984522861E-01  10   9   9   9
 -0.4339145472583014E-01  10   9  10   8
  0.2708183023936940E-01  10   9  10   9
  0.7714175104217169E+00  10  10   1   1
 -0.6940801697282686E-01  10  10   2   1
  0.3707575197259622E+00  10  10   2   2
  0.2351016324369782E-01  10  10   3   1
  0.1148976066895497E-01  10  10   3   2
  0.5583830374915804E+00  10  10   3   3
 -0.1731415175886034E-01  10  10   4   1
 -0.8461679224987797E-02  10  10   4   2
 -0.2551597765540958E-01  10  10   4   3
  0.5425272991910423E+00  10  10   4   4
 -0.1265177895039311E+00  10  10   5   1
  0.1047102110042213E+00  10  10   5   2
  0.2087078867944908E-01  10  10   5   3
 -0.1537037402834523E-01  10  10   5   4
  0.6488169892274422E+00  10  10   5   5
 -0.1714029660729145E-01  10  10   6   1
  0.8585074454290405E-02  10  10   6   2
  0.7984219694053735E-02  10  10   6   3
  0.7680330919590941E-01  10  10   6   4
  0.1189109981167715E-01  10  10   6   5
  0.7267389670998564E+00  10  10   6   6
  0.2957164448598842E-01  10  10   7   1
 -0.1481157388723469E-01  10  10   7   2
  0.7722196854234281E-01  10  10   7   3
 -0.8945571493289818E-02  10  10   7   4
 -0.2051536121193823E-01  10  10   7   5
 -0.2546682671574450E-01  10  10   7   6
  0.7559150616914653E+00  10  10   7   7
  0.8053637934518685E+00  10  10   8   8
 -0.8779335349707774E-01  10  10   9   8
  0.3249497634026180E+00  10  10   9   9
 -0.1619483671701498E+00  10  10  10   8
  0.1064162227184883E+00  10  10  10   9
  0.6810780921521977E+00  10  10  10  10
  0.9889787499538637E+00  11  11   1   1
 -0.1091719527626835E+00  11  11   2   1
  0.3948669398831390E+00  11  11   2   2
 -0.3627376214598817E-01  11  11   3   1
 -0.6001974122906118E-02  11  11   3   2
  0.6511446576327681E+00  11  11   3   3
 -0.1587029009900403E-01  11  11   4   1
 -0.2625949580687993E-02  11  11   4   2
  0.1966228902538714E-01  11  11   4   3
  0.6148062857650299E+00  11  11   4   4
 -0.1917692503614628E+00  11  11   5   1
  0.1387180171772375E+00  11  11   5   2
 -0.2080188468284706E-01  11  11   5   3
 -0.9101122271082604E-02  11  11   5   4
  0.7840506644469325E+00  11  11   5   5
 -0.3530850042161508E-01  11  11   6   1
  0.1090507882588283E-01  11  11   6   2
  0.2398343238259066E-01  11  11   6   3
  0.1277708977070177E+00  11  11   6   4
  0.1652204222871650E-01  11  11   6   5
  0.9305489852554548E+00  11  11   6   6
 -0.6139694074552519E-01  11  11   7   1
  0.1896252943351092E-01  11  11   7   2
  0.1413590684428691E+00  11  11   7   3
 -0.5598167443623016E-02  11  11   7   4
  0.2872970631997221E-01  11  11   7   5
  0.4518015744261611E-01  11  11   7   6
  0.9831290070059122E+00  11  11   7   7
  0.9301782526350084E+00  11  11   8   8
 -0.1188516940675971E+00  11  11   9   8
  0.3241330036400146E+00  11  11   9   9
 -0.2248100334773456E+00  11  11  10   8
  0.1220216390122109E+00  11  11  10   9
  0.7393577945062840E+00  11  11  10  10
  0.1032198941426008E+01  11  11  11  11
 -0.1297273406126064E+00  12  11   1   1
  0.2416612174966550E-01  12  11   2   1
 -0.1384927398423568E-01  12  11   2   2
  0.3762566700734406E-02  12  11   3   1
 -0.2993378093468456E-02  12  11   3   2
 -0.4799556126544576E-01  12  11   3   3
  0.1646176782468424E-02  12  11   4   1
 -0.1309645757949081E-02  12  11   4   2
 -0.1262959872433179E-03  12  11   4   3
 -0.4776215046856823E-01  12  11   4   4
  0.4654380967961230E-01  12  11   5   1
 -0.2330309682959317E-01  12  11   5   2
 -0.8363757985564546E-03  12  11   5   3
 -0.3659263823106692E-03  12  11   5   4
 -0.8693756545484362E-01  12  11   5   5
  0.7684822685967657E-02  12  11   6   1
 -0.1032330893377545E-02  12  11   6   2
 -0.6427004999630108E-02  12  11   6   3
 -0.2719146992484953E-01  12  11   6   4
 -0.3084113041579708E-02  12  11   6   5
 -0.1178943620885738E+00  12  11   6   6
  0.1336291820542407E-01  12  11   7   1
 -0.1795090642016431E-02  12  11   7   2
 -0.3189188463027240E-01  12  11   7   3
  0.6718134402856337E-04  12  11   7   4
 -0.5362875891225083E-02  12  11   7   5
 -0.8196473184960480E-02  12  11   7   6
 -0.1274333004796064E+00  12  11   7   7
 -0.1188516940675973E+00  12  11   8   8
  0.2398637402952383E-01  12  11   9   8
 -0.1072588118181856E-01  12  11   9   9
  0.5199923867758895E-01  12  11  10   8
 -0.1925994435489139E-01  12  11  10   9
 -0.8112303984243360E-01  12  11  10  10
 -0.1367680292898603E+00  12  11  11  11
  0.2971622508083814E-01  12  11  12  11
  0.3301017556349469E+00  12  12   1   1
 -0.6698078569866237E-02  12  12   2   1
  0.2800924983474609E+00  12  12   2   2
 -0.7816395447051106E-02  12  12   3   1
 -0.9623335955796520E-02  12  12   3   2
  0.3164948905898625E+00  12  12   3   3
 -0.3419784878502184E-02  12  12   4   1
 -0.4210347212511385E-02  12  12   4   2
  0.7425349369238173E-02  12  12   4   3
  0.3027719152903507E+00  12  12   4   4
 -0.1111745062624747E-01  12  12   5   1
  0.1650617933405751E-01  12  12   5   2
 -0.7463596676032414E-02  12  12   5   3
 -0.3265430366828707E-02  12  12   5   4
  0.3141657356895950E+00  12  12   5   5
 -0.2169587401535241E-02  12  12   6   1
  0.3696155543693523E-02  12  12   6   2
 -0.1007381527910970E-02  12  12   6   3
  0.8840055018293519E-02  12  12   6   4
  0.2149264744739628E-02  12  12   6   5
  0.3248977985333174E+00  12  12   6   6
 -0.3772633432281246E-02  12  12   7   1
  0.6427139079616036E-02  12  12   7   2
  0.6134505635969914E-02  12  12   7   3
 -0.2653320355106018E-02  12  12   7   4
  0.3737294946074912E-02  12  12   7   5
  0.5635465771251414E-02  12  12   7   6
  0.3314562730849543E+00  12  12   7   7
  0.3241330036400143E+00  12  12   8   8
 -0.1072588118181851E-01  12  12   9   8
  0.2458028158273953E+00  12  12   9   9
 -0.1454543516769199E-01  12  12  10   8
  0.2197610513671489E-01  12  12  10   9
  0.3052028985427353E+00  12  12  10  10
  0.3376414687359947E+00  12  12  11  11
 -0.6239267804915433E-02  12  12  12  11
  0.2814767933609552E+00  12  12  12  12
 -0.2380609846580889E+00  13  11   1   1
  0.5566404509733737E-01  13  11   2   1
 -0.1409477911460323E-01  13  11   2   2
 -0.3921443955289607E-02  13  11   3   1
 -0.8695277268618922E-02  13  11   3   2
 -0.3116660969120712E-01  13  11   3   3
 -0.1715687855231503E-02  13  11   4   1
 -0.3804308254238288E-02  13  11   4   2
  0.8122920011643749E-02  13  11   4   3
 -0.4617878287480184E-01  13  11   4   4
  0.1341987156150026E+00  13  11   5   1
 -0.4188018958838161E-01  13  11   5   2
 -0.1537912528781722E-01  13  11   5   3
 -0.6728587423722233E-02  13  11   5   4
 -0.1512224961642796E+00  13  11   5   5
  0.1330061038892562E-01  13  11   6   1
 -0.1096058381644288E-02  13  11   6   2
 -0.1179772928527732E-01  13  11   6   3
 -0.5384022419823092E-01  13  11   6   4
 -0.7468347468355020E-02  13  11   6   5
 -0.2100469819933264E+00  13  11   6   6
  0.2312805070102263E-01  13  11   7   1
 -0.1905904547287282E-02  13  11   7   2
 -0.6187856331239112E-01  13  11   7   3