 &FCI NORB= 22,NELEC=  8,MS2= 0,
  ORBSYM=1,1,1,1,1,1,1,2,2,2,3,3,3,4,4,5,5,5,6,6,7,7,
  ISYM=1,
  OCC=  1,  1,  1,  0,  1,  0,  0,  0,
  CLOSED=  1,  1,  1,  0,  1,  0,  0,  0,
  FOCK=    -32.794950872383,     -1.940420881661,      0.287355187846,      1.757691930120,      1.757691930120,
       2.741965694313,      6.372473015656,      6.372473015657,     -0.853040140355,      0.293011368713,      1.961350624003,     -0.853040140355,      0.293011368713,      1.961350624003,      1.757691930120,      6.372473015656,     -0.853040140355,      0.293011368713,      1.961350624003,      1.757691930120,      6.372473015656,      1.757691930120,
 /
  0.1021248406399644E+01   1   1   1   1
 -0.1149122855124000E+00   2   1   1   1
  0.2365077973485807E-01   2   1   2   1
  0.3974481363708998E+00   2   2   1   1
 -0.8971210722901884E-02   2   2   2   1
  0.3162830438345193E+00   2   2   2   2
  0.5960570543451628E-16   3   1   1   1
 -0.1488939214998135E-16   3   1   2   1
 -0.1182063390504658E-17   3   1   2   2
  0.3361677557050734E-01   3   1   3   1
 -0.6445267223268198E-16   3   2   1   1
  0.6095326588021045E-17   3   2   2   1
 -0.1915946323247394E-16   3   2   2   2
  0.1096559447075135E-01   3   2   3   1
  0.1282295127370545E-01   3   2   3   2
  0.6461575903086597E+00   3   3   1   1
 -0.3286809539882971E-01   3   3   2   1
  0.3729197358934732E+00   3   3   2   2
  0.2554367840516001E-01   3   3   3   1
  0.1357720329052148E-01   3   3   3   2
  0.6075576851976016E+00   3   3   3   3
 -0.4752247917750655E-17   4   1   1   1
  0.1270478001231840E-17   4   1   2   1
 -0.9858060520836994E-18   4   1   2   2
 -0.9073717981927409E-17   4   1   3   1
  0.2380798858735393E-17   4   1   3   2
  0.1164653255181595E-01   4   1   3   3
  0.3361677557050731E-01   4   1   4   1
  0.2556707164472671E-20   4   2   1   1
 -0.3057813348218660E-18   4   2   2   1
 -0.9609620054784140E-18   4   2   2   2
 -0.1713223895573436E-17   4   2   3   1
 -0.9025259519264615E-18   4   2   3   2
  0.6190468638758699E-02   4   2   3   3
  0.1096559447075138E-01   4   2   4   1
  0.1282295127370547E-01   4   2   4   2
 -0.3872351279113696E-16   4   3   1   1
  0.1755421808057792E-16   4   3   2   1
 -0.5832412395006049E-17   4   3   2   2
  0.1164653255181595E-01   4   3   3   1
  0.6190468638758688E-02   4   3   3   2
  0.4457784461134805E-17   4   3   3   3
 -0.2554367840516015E-01   4   3   4   1
 -0.1357720329052154E-01   4   3   4   2
  0.3586967685064973E-01   4   3   4   3
  0.6461575903086596E+00   4   4   1   1
 -0.3286809539882974E-01   4   4   2   1
  0.3729197358934731E+00   4   4   2   2
 -0.2554367840516009E-01   4   4   3   1
 -0.1357720329052152E-01   4   4   3   2
  0.5358183314963021E+00   4   4   3   3
 -0.1164653255181596E-01   4   4   4   1
 -0.6190468638758695E-02   4   4   4   2
 -0.1647987302177967E-16   4   4   4   3
  0.6075576851976016E+00   4   4   4   4
 -0.1979087733530122E+00   5   1   1   1
  0.4815696390028475E-01   5   1   2   1
 -0.1187681763365571E-01   5   1   2   2
 -0.2903697262079470E-16   5   1   3   1
  0.1441817359418602E-16   5   1   3   2
 -0.2306438311986033E-01   5   1   3   3
  0.2134758745379018E-17   5   1   4   1
 -0.7123221093312628E-18   5   1   4   2
 -0.1787987435814175E-16   5   1   4   3
 -0.2306438311986008E-01   5   1   4   4
  0.1219668073779359E+00   5   1   5   1
  0.1431630208416400E+00   5   2   1   1
 -0.1969761307490292E-01   5   2   2   1
  0.2923874993822850E-01   5   2   2   2
  0.1203823134282172E-16   5   2   3   1
 -0.1023640758144449E-16   5   2   3   2
  0.8099053978233686E-01   5   2   3   3
 -0.1216310898836763E-17   5   2   4   1
 -0.3340043984117605E-18   5   2   4   2
 -0.7161983491489934E-16   5   2   4   3
  0.8099053978233731E-01   5   2   4   4
 -0.3483078951824445E-01   5   2   5   1
  0.2932449155030747E-01   5   2   5   2
 -0.5458323814220469E-16   5   3   1   1
  0.1359826137811965E-16   5   3   2   1
 -0.3080311564138155E-17   5   3   2   2
  0.2910823469804870E-01   5   3   3   1
  0.1573862767710171E-01   5   3   3   2
  0.2760171741332314E-01   5   3   3   3
  0.1571411602092869E-17   5   3   4   1
  0.9439271237348151E-17   5   3   4   2
  0.1258488676694867E-01   5   3   4   3
 -0.2760171741332314E-01   5   3   4   4
  0.4786270153717981E-16   5   3   5   1
 -0.5847385151232396E-17   5   3   5   2
  0.3547751821823876E-01   5   3   5   3
  0.2254161756953889E-17   5   4   1   1
 -0.3969271828633887E-18   5   4   2   1
 -0.3010856447285072E-18   5   4   2   2
 -0.5203754108451575E-17   5   4   3   1
  0.1113440697749851E-16   5   4   3   2
  0.1258488676694864E-01   5   4   3   3
  0.2910823469804873E-01   5   4   4   1
  0.1573862767710165E-01   5   4   4   2
 -0.2760171741332289E-01   5   4   4   3
 -0.1258488676694864E-01   5   4   4   4
 -0.7810893080283704E-18   5   4   5   1
  0.2647706773133373E-19   5   4   5   2
  0.8514172808931441E-16   5   4   5   3
  0.3547751821823823E-01   5   4   5   4
  0.8010555211002859E+00   5   5   1   1
 -0.7296854996932144E-01   5   5   2   1
  0.3741595043883224E+00   5   5   2   2
  0.6101683046190457E-16   5   5   3   1
 -0.3917063554543439E-16   5   5   3   2
  0.5706831883183801E+00   5   5   3   3
 -0.2857487001626856E-17   5   5   4   1
 -0.5843270673779522E-18   5   5   4   2
  0.2294823305619750E-15   5   5   4   3
  0.5706831883183784E+00   5   5   4   4
 -0.1229536003761731E+00   5   5   5   1
  0.1081534085827969E+00   5   5   5   2
 -0.4482479330495424E-17   5   5   5   3
  0.1507217123208706E-17   5   5   5   4
  0.6674897698430516E+00   5   5   5   5
 -0.5103497712946379E-17   6   1   1   1
  0.5419208146480032E-17   6   1   2   1
 -0.3107200092043990E-17   6   1   2   2
  0.3505931407847335E-01   6   1   3   1
 -0.2191204265947880E-02   6   1   3   2
  0.1761791178617224E-01   6   1   3   3
  0.1021521367436046E-01   6   1   4   1
 -0.6384500201779938E-03   6   1   4   2
  0.2559468997087712E-02   6   1   4   3
 -0.1761791178617232E-01   6   1   4   4
  0.1219846886818269E-16   6   1   5   1
 -0.3934533268087999E-17   6   1   5   2
  0.1005442167109239E-01   6   1   5   3
  0.2929551488441447E-02   6   1   5   4
  0.1001413642486624E-16   6   1   5   5
  0.8666446090079161E-01   6   1   6   1
  0.4599832125947365E-16   6   2   1   1
 -0.7365840269836532E-17   6   2   2   1
  0.1085861921994417E-16   6   2   2   2
 -0.1439518552613665E-01   6   2   3   1
 -0.6583393817800550E-02   6   2   3   2
 -0.1246932484687692E-01   6   2   3   3
 -0.4194317541478561E-02   6   2   4   1
 -0.1918199951110514E-02   6   2   4   2
 -0.1811500179337133E-02   6   2   4   3
  0.1246932484687708E-01   6   2   4   4
 -0.1582936560060369E-16   6   2   5   1
  0.7612234450148573E-17   6   2   5   2
 -0.1038967894500449E-01   6   2   5   3
 -0.3027235221820610E-02   6   2   5   4
  0.2336717989769470E-16   6   2   5   5
 -0.2099870589059781E-01   6   2   6   1
  0.9482611405704890E-02   6   2   6   2
  0.1395005928518882E+00   6   3   1   1
 -0.2764256586777408E-01   6   3   2   1
  0.9234288174003208E-02   6   3   2   2
  0.4513504329064924E-02   6   3   3   1
 -0.4913406485956241E-02   6   3   3   2
  0.4235640502418671E-01   6   3   3   3
  0.6557062232273083E-03   6   3   4   1
 -0.7138026188077968E-03   6   3   4   2
 -0.4832529413742247E-03   6   3   4   3
  0.4567351951460778E-01   6   3   4   4
 -0.4580810545988831E-01   6   3   5   1
  0.2128581077232644E-01   6   3   5   2
 -0.2436940513743110E-02   6   3   5   3
 -0.3540302487816876E-03   6   3   5   4
  0.8358169002990498E-01   6   3   5   5
  0.1790273897002258E-01   6   3   6   1
 -0.1586610647344784E-02   6   3   6   2
  0.5001405770975469E-01   6   3   6   3
  0.4064621345678224E-01   6   4   1   1
 -0.8054199697542735E-02   6   4   2   1
  0.2690589628106361E-02   6   4   2   2
  0.6557062232273005E-03   6   4   3   1
 -0.7138026188078003E-03   6   4   3   2
  0.1330786906034376E-01   6   4   3   3
 -0.4513504329064811E-02   6   4   4   1
  0.4913406485956172E-02   6   4   4   2
 -0.1658557245210508E-02   6   4   4   3
  0.1234136317759536E-01   6   4   4   4
 -0.1334708329555460E-01   6   4   5   1
  0.6202035350281521E-02   6   4   5   2
 -0.3540302487817060E-03   6   4   5   3
  0.2436940513742992E-02   6   4   5   4
  0.2435315251771788E-01   6   4   5   5
 -0.2509249440183790E-02   6   4   6   1
  0.2223794853572538E-03   6   4   6   2
  0.1217308697635065E-01   6   4   6   3
  0.1178205402200000E-01   6   4   6   4
  0.2366745592139858E-16   6   5   1   1
 -0.7131358966472822E-17   6   5   2   1
  0.1765469802873095E-17   6   5   2   2
 -0.1410272074956719E-01   6   5   3   1
 -0.3290648877816505E-02   6   5   3   2
 -0.9663276974606321E-02   6   5   3   3
 -0.4109102235263655E-02   6   5   4   1
 -0.9587946112964954E-03   6   5   4   2
 -0.1403847296260652E-02   6   5   4   3
  0.9663276974605998E-02   6   5   4   4
 -0.1169106073685293E-16   6   5   5   1
  0.3319319723827794E-17   6   5   5   2
 -0.5705023171510236E-02   6   5   5   3
 -0.1662269563623004E-02   6   5   5   4
  0.4944420215883278E-17   6   5   5   5
 -0.3506468832045682E-01   6   5   6   1
  0.1161480631393223E-01   6   5   6   2
 -0.3598935246279699E-02   6   5   6   3
  0.5044270749358003E-03   6   5   6   4
  0.2319751286587758E-01   6   5   6   5
  0.9900112736784392E+00   6   6   1   1
 -0.1085018687782177E+00   6   6   2   1
  0.3947307131188215E+00   6   6   2   2
  0.3063871006760907E-01   6   6   3   1
  0.3605166837659250E-02   6   6   3   2
  0.6619359967236796E+00   6   6   3   3
 -0.4294324249146238E-02   6   6   4   1
 -0.5053004953215215E-03   6   6   4   2
  0.1266642133333463E-01   6   6   4   3
  0.6221545782496711E+00   6   6   4   4
 -0.1803029162135505E+00   6   6   5   1
  0.1354850735140249E+00   6   6   5   2
  0.1459378102750431E-01   6   6   5   3
 -0.2045465609186920E-02   6   6   5   4
  0.7721026942005175E+00   6   6   5   5
  0.5499333237046397E-01   6   6   6   1
 -0.1605166351577514E-01   6   6   6   2
  0.1548802297768443E+00   6   6   6   3
  0.4512737007812577E-01   6   6   6   4
 -0.2344900162550931E-01   6   6   6   5
  0.1046853593234630E+01   6   6   6   6
  0.2020466340687140E-17   7   1   1   1
 -0.8748423798692317E-18   7   1   2   1
  0.4885817781500741E-18   7   1   2   2
 -0.1021521367436047E-01   7   1   3   1
  0.6384500201780042E-03   7   1   3   2
  0.2559468997087729E-02   7   1   3   3
  0.3505931407847328E-01   7   1   4   1
 -0.2191204265947914E-02   7   1   4   2
 -0.1761791178617227E-01   7   1   4   3
 -0.2559468997087704E-02   7   1   4   4
 -0.3996818059856346E-17   7   1   5   1
  0.8600920486717651E-18   7   1   5   2
 -0.2929551488441424E-02   7   1   5   3
  0.1005442167109207E-01   7   1   5   4
 -0.1821824342478618E-17   7   1   5   5
  0.1776394309345499E-16   7   1   6   1
 -0.1323384267643992E-16   7   1   6   2
 -0.2509249440183798E-02   7   1   6   3
 -0.1790273897002253E-01   7   1   6   4
  0.3152148380940338E-16   7   1   6   5
 -0.2474165712534944E-01   7   1   6   6
  0.8666446090079158E-01   7   1   7   1
 -0.6424804420719860E-17   7   2   1   1
  0.9046809321206372E-18   7   2   2   1
 -0.1539562623076471E-17   7   2   2   2
  0.4194317541478570E-02   7   2   3   1
  0.1918199951110513E-02   7   2   3   2
 -0.1811500179337176E-02   7   2   3   3
 -0.1439518552613667E-01   7   2   4   1
 -0.6583393817800436E-02   7   2   4   2
  0.1246932484687708E-01   7   2   4   3
  0.1811500179337152E-02   7   2   4   4
  0.2913761148794226E-17   7   2   5   1
 -0.6714881285698718E-18   7   2   5   2
  0.3027235221820608E-02   7   2   5   3
 -0.1038967894500465E-01   7   2   5   4
 -0.2003151801298635E-17   7   2   5   5
 -0.9257379165137975E-17   7   2   6   1
 -0.1726276313660744E-16   7   2   6   2
  0.2223794853572828E-03   7   2   6   3
  0.1586610647344684E-02   7   2   6   4
  0.6911598202769198E-16   7   2   6   5
  0.7221689209946645E-02   7   2   6   6
 -0.2099870589059786E-01   7   2   7   1
  0.9482611405704779E-02   7   2   7   2
 -0.4064621345678238E-01   7   3   1   1
  0.8054199697542759E-02   7   3   2   1
 -0.2690589628106374E-02   7   3   2   2
  0.6557062232273001E-03   7   3   3   1
 -0.7138026188077882E-03   7   3   3   2
 -0.1234136317759540E-01   7   3   3   3
 -0.4513504329064809E-02   7   3   4   1
  0.4913406485956204E-02   7   3   4   2
 -0.1658557245210505E-02   7   3   4   3
 -0.1330786906034379E-01   7   3   4   4
  0.1334708329555477E-01   7   3   5   1
 -0.6202035350281555E-02   7   3   5   2
 -0.3540302487816284E-03   7   3   5   3
  0.2436940513742963E-02   7   3   5   4
 -0.2435315251771869E-01   7   3   5   5
 -0.2509249440183808E-02   7   3   6   1
  0.2223794853572926E-03   7   3   6   2
 -0.1217308697635069E-01   7   3   6   3
  0.4688322281460953E-02   7   3   6   4
  0.5044270749356433E-03   7   3   6   5
 -0.3717832299427563E-01   7   3   6   6
 -0.1790273897002253E-01   7   3   7   1
  0.1586610647344653E-02   7   3   7   2
  0.1178205402200000E-01   7   3   7   3
  0.1395005928518881E+00   7   4   1   1
 -0.2764256586777409E-01   7   4   2   1
  0.9234288174003411E-02   7   4   2   2
 -0.4513504329064852E-02   7   4   3   1
  0.4913406485956204E-02   7   4   3   2
  0.4567351951460768E-01   7   4   3   3
 -0.6557062232273054E-03   7   4   4   1
  0.7138026188077984E-03   7   4   4   2
  0.4832529413742061E-03   7   4   4   3
  0.4235640502418654E-01   7   4   4   4
 -0.4580810545988864E-01   7   4   5   1
  0.2128581077232569E-01   7   4   5   2
  0.2436940513742923E-02   7   4   5   3
  0.3540302487816599E-03   7   4   5   4
  0.8358169002990787E-01   7   4   5   5
 -0.1790273897002242E-01   7   4   6   1
  0.1586610647344600E-02   7   4   6   2
  0.3354368140629380E-01   7   4   6   3
  0.1217308697635066E-01   7   4   6   4
  0.3598935246280200E-02   7   4   6   5
  0.1275985548925718E+00   7   4   6   6
  0.2509249440183784E-02   7   4   7   1
 -0.2223794853572641E-03   7   4   7   2
 -0.1217308697635070E-01   7   4   7   3
  0.5001405770975471E-01   7   4   7   4
 -0.1170883586283665E-16   7   5   1   1
  0.2585589689873110E-17   7   5   2   1
 -0.7934225278194993E-18   7   5   2   2
  0.4109102235263674E-02   7   5   3   1
  0.9587946112964962E-03   7   5   3   2
 -0.1403847296260513E-02   7   5   3   3
 -0.1410272074956710E-01   7   5   4   1
 -0.3290648877816806E-02   7   5   4   2
  0.9663276974605917E-02   7   5   4   3
  0.1403847296260552E-02   7   5   4   4
  0.5217574713812601E-17   7   5   5   1
 -0.1550162154386260E-17   7   5   5   2
  0.1662269563623003E-02   7   5   5   3
 -0.5705023171508467E-02   7   5   5   4
 -0.5035840214823186E-17   7   5   5   5
  0.5381562442713438E-16   7   5   6   1
  0.7347609402969993E-16   7   5   6   2
  0.5044270749356519E-03   7   5   6   3
  0.3598935246280157E-02   7   5   6   4
 -0.3804826535519070E-15   7   5   6   5
  0.1054977272957051E-01   7   5   6   6
 -0.3506468832045645E-01   7   5   7   1
  0.1161480631393275E-01   7   5   7   2
  0.3598935246280206E-02   7   5   7   3
 -0.5044270749357238E-03   7   5   7   4
  0.2319751286587497E-01   7   5   7   5
  0.3298653397346197E-16   7   6   1   1
  0.2258526865628567E-16   7   6   2   1
 -0.1430291709908290E-15   7   6   2   2
 -0.4294324249146145E-02   7   6   3   1
 -0.5053004953217368E-03   7   6   3   2
 -0.1266642133333463E-01   7   6   3   3
 -0.3063871006760920E-01   7   6   4   1
 -0.3605166837659009E-02   7   6   4   2
  0.1989070923700408E-01   7   6   4   3
  0.1266642133333476E-01   7   6   4   4
 -0.6002455918112610E-17   7   6   5   1
  0.1666648855394191E-15   7   6   5   2
 -0.2045465609186729E-02   7   6   5   3
 -0.1459378102750462E-01   7   6   5   4
 -0.5270835142045189E-15   7   6   5   5
 -0.2474165712534950E-01   7   6   6   1
  0.7221689209946734E-02   7   6   6   2
 -0.3974523541925106E-02   7   6   6   3
  0.1364083744213630E-01   7   6   6   4
  0.1054977272957055E-01   7   6   6   5
  0.3847872930436270E-16   7   6   6   6
 -0.5499333237046374E-01   7   6   7   1
  0.1605166351577502E-01   7   6   7   2
  0.1364083744213625E-01   7   6   7   3
  0.3974523541925070E-02   7   6   7   4
  0.2344900162551002E-01   7   6   7   5
  0.5713436333943260E-01   7   6   7   6
  0.9900112736784383E+00   7   7   1   1
 -0.1085018687782172E+00   7   7   2   1
  0.3947307131188199E+00   7   7   2   2
 -0.3063871006760909E-01   7   7   3   1
 -0.3605166837659867E-02   7   7   3   2
  0.6221545782496709E+00   7   7   3   3
  0.4294324249146201E-02   7   7   4   1
  0.5053004953214510E-03   7   7   4   2
 -0.1266642133333476E-01   7   7   4   3
  0.6619359967236795E+00   7   7   4   4
 -0.1803029162135505E+00   7   7   5   1
  0.1354850735140254E+00   7   7   5   2
 -0.1459378102750379E-01   7   7   5   3
  0.2045465609187019E-02   7   7   5   4
  0.7721026942005150E+00   7   7   5   5
 -0.5499333237046417E-01   7   7   6   1
  0.1605166351577568E-01   7   7   6   2
  0.1275985548925720E+00   7   7   6   3
  0.3717832299427552E-01   7   7   6   4
  0.2344900162551034E-01   7   7   6   5
  0.9325848665557638E+00   7   7   6   6
  0.2474165712534944E-01   7   7   7   1
 -0.7221689209946720E-02   7   7   7   2
 -0.4512737007812584E-01   7   7   7   3
  0.1548802297768439E+00   7   7   7   4
 -0.1054977272957064E-01   7   7   7   5
  0.6245004513516506E-16   7   7   7   6
  0.1046853593234628E+01   7   7   7   7
  0.9889787499538626E+00   8   8   1   1
 -0.1091719527626827E+00   8   8   2   1
  0.3948669398831379E+00   8   8   2   2
 -0.2446878496241518E-01   8   8   3   1
 -0.4048684378871714E-02   8   8   3   2
  0.6266531928280854E+00   8   8   3   3
  0.3112764832931231E-01   8   8   4   1
  0.5150481469982215E-02   8   8   4   2
 -0.2601449052157352E-01   8   8   4   3
  0.6392977505697114E+00   8   8   4   4
 -0.1917692503614628E+00   8   8   5   1
  0.1387180171772369E+00   8   8   5   2
 -0.1403209408136476E-01   8   8   5   3
  0.1785074700519297E-01   8   8   5   4
  0.7840506644469341E+00   8   8   5   5
 -0.2644649788542668E-01   8   8   6   1
  0.8168037177035344E-02   8   8   6   2
  0.1242719090284159E+00   8   8   6   3
  0.2796057902956978E-01   8   8   6   4
  0.1237521134138018E-01   8   8   6   5
  0.9191431861189395E+00   8   8   6   6
  0.6570279510438541E-01   8   8   7   1
 -0.2029239846321910E-01   8   8   7   2
 -0.4777845171649538E-01   8   8   7   3
  0.1356696400740001E+00   8   8   7   4
 -0.3074456128969013E-01   8   8   7   5
 -0.3621377094307875E-01   8   8   7   6
  0.9945348061424261E+00   8   8   7   7
  0.1032198941426007E+01   8   8   8   8
 -0.1297273406126064E+00   9   8   1   1
  0.2416612174966539E-01   9   8   2   1
 -0.1384927398423554E-01   9   8   2   2
  0.2538072426468624E-02   9   8   3   1
 -0.2019209493228272E-02   9   8   3   2
 -0.4783824622839444E-01   9   8   3   3
 -0.3228776011836824E-02   9   8   4   1
  0.2568711241893051E-02   9   8   4   2
  0.1670978266473575E-03   9   8   4   3
 -0.4791946550561955E-01   9   8   4   4
  0.4654380967961247E-01   9   8   5   1
 -0.2330309682959267E-01   9   8   5   2
 -0.5641846434423965E-03   9   8   5   3
  0.7177201974206867E-03   9   8   5   4
 -0.8693756545484489E-01   9   8   5   5
  0.5756026013211979E-02   9   8   6   1
 -0.7732284425212980E-03   9   8   6   2
 -0.2656173995709915E-01   9   8   6   3
 -0.4885975649035243E-02   9   8   6   4
 -0.2310038321044967E-02   9   8   6   5
 -0.1158251500258619E+00   9   8   6   6
 -0.1430007857372971E-01   9   8   7   1
  0.1920982889604351E-02   9   8   7   2
  0.1174136641639212E-01   9   8   7   3
 -0.3050443862173755E-01   9   8   7   4
  0.5738981968365839E-02   9   8   7   5
  0.6569813370797783E-02   9   8   7   6
 -0.1295025125423185E+00   9   8   7   7
 -0.1367680292898603E+00   9   8   8   8
  0.2971622508083824E-01   9   8   9   8
  0.3301017556349473E+00   9   9   1   1
 -0.6698078569866209E-02   9   9   2   1
  0.2800924983474606E+00   9   9   2   2
 -0.5272618224857860E-02   9   9   3   1
 -0.6491505821088411E-02   9   9   3   2
  0.3072458310065984E+00   9   9   3   3
  0.6707493082725527E-02   9   9   4   1
  0.8258085174106812E-02   9   9   4   2
 -0.9824221408606545E-02   9   9   4   3
  0.3120209748736147E+00   9   9   4   4
 -0.1111745062624814E-01   9   9   5   1
  0.1650617933405796E-01   9   9   5   2
 -0.5034634714124130E-02   9   9   5   3
  0.6404745437441398E-02   9   9   5   4
  0.3141657356895929E+00   9   9   5   5
 -0.1625047451514756E-02   9   9   6   1
  0.2768465627349463E-02   9   9   6   2
  0.8366360440172194E-02   9   9   6   3
  0.4080058327864580E-02   9   9   6   4
  0.1609825533463076E-02   9   9   6   5
  0.3234751166688455E+00   9   9   6   6
  0.4037213554865843E-02   9   9   7   1
 -0.6877883440571542E-02   9   9   7   2
 -0.1341089981567803E-03   9   9   7   3
  0.6096950908180257E-02   9   9   7   4
 -0.3999396730602033E-02   9   9   7   5
 -0.4517059659583229E-02   9   9   7   6
  0.3328789549494264E+00   9   9   7   7
  0.3376414687359949E+00   9   9   8   8
 -0.6239267804915499E-02   9   9   9   8
  0.2814767933609553E+00   9   9   9   9
 -0.2380609846580884E+00  10   8   1   1
  0.5566404509733699E-01  10   8   2   1
 -0.1409477911460309E-01  10   8   2   2
 -0.2645244474448977E-02  10   8   3   1
 -0.5865475679586919E-02  10   8   3   2
 -0.4128456743862682E-01  10   8   3   3
  0.3365113546593427E-02  10   8   4   1
  0.7461689026192183E-02  10   8   4   2
 -0.1074715285578225E-01  10   8   4   3
 -0.3606082512738185E-01  10   8   4   4
  0.1341987156150018E+00  10   8   5   1
 -0.4188018958837969E-01  10   8   5   2
 -0.1037412408625049E-01  10   8   5   3
  0.1319730778530679E-01  10   8   5   4
 -0.1512224961642853E+00  10   8   5   5
  0.9962319563995818E-02  10   8   6   1
 -0.8209611092604682E-03  10   8   6   2
 -0.5251273368987347E-01  10   8   6   3
 -0.1042107435468606E-01  10   8   6   4
 -0.5593883432348325E-02  10   8   6   5
 -0.2070819563700195E+00  10   8   6   6
 -0.2475005363331393E-01  10   8   7   1
  0.2039568330903637E-02  10   8   7   2
  0.2214471135303856E-01  10   8   7   3
 -0.5925527682223685E-01  10   8   7   4
  0.1389725696708872E-01  10   8   7   5
  0.9414049596843176E-02  10   8   7   6
 -0.2266805905802769E+00  10   8   7   7
 -0.2526993460797324E+00  10   8   8   8
  0.6350600971614277E-01  10   8   9   8
 -0.1000963047233305E-01  10   8   9   9
  0.1811056176787057E+00  10   8  10   8
  0.1292222980783711E+00  10   9   1   1
 -0.1714009909664934E-01  10   9   2   1
  0.3421259666967838E-01  10   9   2   2
 -0.3258355885477506E-02  10   9   3   1
 -0.1501080169672833E-02  10   9   3   2
  0.7227513194960834E-01  10   9   3   3
  0.4145075298617440E-02  10   9   4   1
  0.1909579724021838E-02  10   9   4   2
 -0.4427281016438508E-02  10   9   4   3
  0.7442704841340896E-01  10   9   4   4
 -0.3398201708306492E-01  10   9   5   1
  0.2495548700517825E-01  10   9   5   2
 -0.2365224445669061E-02  10   9   5   3
  0.3008889688547597E-02  10   9   5   4
  0.9878940996989911E-01  10   9   5   5
 -0.3191213190111433E-02  10   9   6   1
  0.1400407836042882E-02  10   9   6   2
  0.1742412519834393E-01  10   9   6   3
  0.4878711544301318E-02  10   9   6   4
  0.2341633400851702E-02  10   9   6   5
  0.1176161359709764E+00  10   9   6   6
  0.7928143350875947E-02  10   9   7   1
 -0.3479126405042799E-02  10   9   7   2
 -0.5354781306715519E-02  10   9   7   3
  0.1769792426833755E-01  10   9   7   4
 -0.5817475728253203E-02  10   9   7   5
 -0.4800813228646275E-02  10   9   7   6
  0.1276107064703241E+00  10   9   7   7
  0.1367842435999702E+00  10   9   8   8
 -0.2167021491835538E-01  10   9   9   8
  0.1929008984522858E-01  10   9   9   9
 -0.4339145472583032E-01  10   9  10   8
  0.2708183023936934E-01  10   9  10   9
  0.7714175104217156E+00  10  10   1   1
 -0.6940801697282627E-01  10  10   2   1
  0.3707575197259617E+00  10  10   2   2
 -0.1804416211703641E-01  10  10   3   1
 -0.8818445965156803E-02  10  10   3   2
  0.5441452895065947E+00  10  10   3   3
  0.2295464746774111E-01  10  10   4   1
  0.1121827198351269E-01  10  10   4   2
 -0.2596346768184805E-01  10  10   4   3
  0.5567650471760262E+00  10  10   4   4
 -0.1265177895039278E+00  10  10   5   1
  0.1047102110042175E+00  10  10   5   2
 -0.1601842958463361E-01  10  10   5   3
  0.2037763802592330E-01  10  10   5   4
  0.6488169892274405E+00  10  10   5   5
 -0.1276290367395815E-01  10  10   6   1
  0.6392566056718588E-02  10  10   6   2
  0.7412195568155153E-01  10  10   6   3
  0.2121855669577484E-01  10  10   6   4
  0.8854278601534196E-02  10  10   6   5
  0.7201621732978211E+00  10  10   6   6
  0.3170773115820316E-01  10  10   7   1
 -0.1588147737501809E-01  10  10   7   2
 -0.2212750919638885E-01  10  10   7   3
  0.7464471593432256E-01  10  10   7   4
 -0.2199727371366627E-01  10  10   7   5
 -0.2033272948173957E-01  10  10   7   6
  0.7624918554935003E+00  10  10   7   7
  0.8053637934518674E+00  10  10   8   8
 -0.8779335349707805E-01  10  10   9   8
  0.3249497634026179E+00  10  10   9   9
 -0.1619483671701486E+00  10  10  10   8
  0.1064162227184881E+00  10  10  10   9
  0.6810780921521969E+00  10  10  10  10
  0.9889787499538624E+00  11  11   1   1
 -0.1091719527626828E+00  11  11   2   1
  0.3948669398831376E+00  11  11   2   2
 -0.1472294173204506E-01  11  11   3   1
 -0.2436105605289781E-02  11  11   3   2
  0.6136074014761128E+00  11  11   3   3
 -0.3675441354184637E-01  11  11   4   1
 -0.6081504258999205E-02  11  11   4   2
  0.1848249937272050E-01  11  11   4   3
  0.6523435419216838E+00  11  11   4   4
 -0.1917692503614632E+00  11  11   5   1
  0.1387180171772364E+00  11  11   5   2
 -0.8443153342343889E-02  11  11   5   3
 -0.2107752344535151E-01  11  11   5   4
  0.7840506644469382E+00  11  11   5   5
 -0.4367704071732834E-01  11  11   6   1
  0.1348971398434630E-01  11  11   6   2
  0.1242388167146825E+00  11  11   6   3
  0.4775934586025308E-01  11  11   6   4
  0.2043796543438941E-01  11  11   6   5
  0.9443248555330177E+00  11  11   6   6
 -0.5575473656210359E-01  11  11   7   1
  0.1721992692597792E-01  11  11   7   2
 -0.2797968488581197E-01  11  11   7   3
  0.1357027323877335E+00  11  11   7   4
  0.2608952804368143E-01  11  11   7   5
  0.5075241455794122E-01  11  11   7   6
  0.9693531367283473E+00  11  11   7   7
  0.9301782526350073E+00  11  11   8   8
 -0.1188516940675973E+00  11  11   9   8
  0.3241330036400144E+00  11  11   9   9
 -0.2248100334773456E+00  11  11  10   8
  0.1220216390122109E+00  11  11  10   9
  0.7393577945062855E+00  11  11  10  10
  0.1032198941426006E+01  11  11  11  11
 -0.1297273406126066E+00  12  11   1   1
  0.2416612174966546E-01  12  11   2   1
 -0.1384927398423551E-01  12  11   2   2
  0.1527165836146174E-02  12  11   3   1
 -0.1214964443851877E-02  12  11   3   2
 -0.4775444972351960E-01  12  11   3   3
  0.3812423203885067E-02  12  11   4   1
 -0.3033042337644937E-02  12  11   4   2
 -0.1187178920006791E-03  12  11   4   3
 -0.4800326201049457E-01  12  11   4   4
  0.4654380967961250E-01  12  11   5   1
 -0.2330309682959286E-01  12  11   5   2
 -0.3394716020544940E-03  12  11   5   3
 -0.8474583323564518E-03  12  11   5   4
 -0.8693756545484467E-01  12  11   5   5
  0.9506218314357540E-02  12  11   6   1
 -0.1277005761371925E-02  12  11   6   2
 -0.2655029267687781E-01  12  11   6   3
 -0.1173475732607480E-01  12  11   6   4
 -0.3815085015943232E-02  12  11   6   5
 -0.1203935466359712E+00  12  11   6   6
  0.1213490403915049E-01  12  11   7   1
 -0.1630126918954336E-02  12  11   7   2
  0.4892584739352581E-02  12  11   7   3
 -0.3051588590195896E-01  12  11   7   4
 -0.4870042853923289E-02  12  11   7   5
 -0.9207378383409190E-02  12  11   7   6
 -0.1249341159322098E+00  12  11   7   7
 -0.1188516940675976E+00  12  11   8   8
  0.2398637402952395E-01  12  11   9   8
 -0.1072588118181862E-01  12  11   9   9
  0.5199923867758909E-01  12  11  10   8
 -0.1925994435489144E-01  12  11  10   9
 -0.8112303984243396E-01  12  11  10  10
 -0.1367680292898605E+00  12  11  11  11
  0.2971622508083838E-01  12  11  12  11
  0.3301017556349474E+00  12  12   1   1
 -0.6698078569866196E-02  12  12   2   1
  0.2800924983474607E+00  12  12   2   2
 -0.3172550292919784E-02  12  12   3   1
 -0.3905958636847783E-02  12  12   3   2
  0.3023191635946046E+00  12  12   3   3
 -0.7919967868546488E-02  12  12   4   1
 -0.9750851536930633E-02  12  12   4   2
  0.6979808652084106E-02  12  12   4   3
  0.3169476422856088E+00  12  12   4   4
 -0.1111745062624792E-01  12  12   5   1
  0.1650617933405762E-01  12  12   5   2
 -0.3029354896536469E-02  12  12   5   3
 -0.7562494279926429E-02  12  12   5   4
  0.3141657356895934E+00  12  12   5   5
 -0.2683805773259388E-02  12  12   6   1
  0.4572188970128345E-02  12  12   6   2
  0.8372949471964791E-02  12  12   6   3
  0.1379131774359131E-03  12  12   6   4
  0.2658666401784080E-02  12  12   6   5
  0.3266161069636726E+00  12  12   6   6
 -0.3425939152799829E-02  12  12   7   1
  0.5836503283074612E-02  12  12   7   2
 -0.4076254148585486E-02  12  12   7   3
  0.6090361876387757E-02  12  12   7   4
  0.3393848172939422E-02  12  12   7   5
  0.6330511251823561E-02  12  12   7   6
  0.3297379646545997E+00  12  12   7   7
  0.3241330036400148E+00  12  12   8   8
 -0.1072588118181865E-01  12  12   9   8
  0.2458028158273954E+00  12  12   9   9
 -0.1454543516769213E-01  12  12  10   8
  0.2197610513671500E-01  12  12  10   9
  0.3052028985427357E+00  12  12  10  10
  0.3376414687359951E+00  12  12  11  11
 -0.6239267804915509E-02  12  12  12  11
  0.2814767933609555E+00  12  12  12  12
 -0.2380609846580884E+00  13  11   1   1
  0.5566404509733697E-01  13  11   2   1
 -0.1409477911460346E-01  13  11   2   2
 -0.1591651580744560E-02  13  11   3   1
 -0.3529274412028831E-02  13  11   3   2
 -0.4667406809665495E-01  13  11   3   3
 -0.3973405687389938E-02  13  11   4   1
 -0.8810495456898031E-02  13  11   4   2
  0.7635523200071955E-02  13  11   4   3
 -0.3067132446935344E-01  13  11   4   4
  0.1341987156150028E+00  13  11   5   1
 -0.4188018958837889E-01  13  11   5   2