 &FCI NORB= 22,NELEC=  8,MS2= 0,
  ORBSYM=1,1,1,1,1,1,1,1,1,1,1,1,1,1,1,1,1,1,1,1,1,1,
  ISYM=1,
  OCC=  4,  0,  0,  0,  0,  0,  0,  0,
  CLOSED=  4,  0,  0,  0,  0,  0,  0,  0,
  FOCK=    -32.794951028940,     -1.940420941604,     -0.853040196819,     -0.853040196819,     -0.853040196819,
       0.287355180881,      0.293011365016,      0.293011365016,      0.293011365016,      1.757691908900,      1.757691908900,      1.757691908900,      1.757691908900,      1.757691908900,      1.961350583813,      1.961350583813,      1.961350583813,      2.741965652092,      6.372472955549,      6.372472955549,      6.372472955549,      6.372472955549,
 /
  0.1021248410921186E+01   1   1   1   1
  0.3461556683385186E-17   2   1   1   1
  0.1988836076501085E+00   2   1   2   1
  0.9889787568964824E+00   2   2   1   1
 -0.4022565834126428E-16   2   2   2   1
  0.1032198951517013E+01   2   2   2   2
  0.1991271509522517E-16   3   1   1   1
  0.5741554187685560E-16   3   1   2   1
  0.2406206307366287E-16   3   1   2   2
  0.1988836076501088E+00   3   1   3   1
  0.3213604813125360E-15   3   2   1   1
  0.1199049888547518E-16   3   2   2   1
  0.3530321325944526E-15   3   2   2   2
 -0.3976159307360376E-17   3   2   3   1
  0.5101034497872536E-01   3   2   3   2
  0.9889787568964836E+00   3   3   1   1
 -0.1162851025982002E-16   3   3   2   1
  0.9301782615595641E+00   3   3   2   2
 -0.5976496316001009E-17   3   3   3   1
  0.3191891195797325E-15   3   3   3   2
  0.1032198951517017E+01   3   3   3   3
  0.1315493653247260E-16   4   1   1   1
 -0.7131432627692487E-16   4   1   2   1
  0.9773119463973630E-17   4   1   2   2
 -0.6110616880658605E-16   4   1   3   1
  0.4323950273634273E-16   4   1   3   2
 -0.2131735465849052E-16   4   1   3   3
  0.1988836076501083E+00   4   1   4   1
 -0.3260271149013236E-15   4   2   1   1
  0.7385428260352489E-17   4   2   2   1
 -0.3472979728217081E-15   4   2   2   2
  0.3475482738639814E-16   4   2   3   1
 -0.1994931997373328E-16   4   2   3   2
 -0.3120149160208170E-15   4   2   3   3
 -0.3590352355466494E-17   4   2   4   1
  0.5101034497872523E-01   4   2   4   2
 -0.3079822390774481E-15   4   3   1   1
  0.2065216968697349E-16   4   3   2   1
 -0.2921842891285426E-15   4   3   2   2
 -0.4017517453733665E-16   4   3   3   1
 -0.1994931997373328E-16   4   3   3   2
 -0.3304381562765000E-15   4   3   3   3
  0.4406097306927731E-17   4   3   4   1
  0.1702197410802242E-16   4   3   4   2
  0.5101034497872534E-01   4   3   4   3
  0.9889787568964815E+00   4   4   1   1
 -0.1054143724553945E-16   4   4   2   1
  0.9301782615595617E+00   4   4   2   2
  0.1930828674396321E-16   4   4   3   1
  0.3521488656232918E-15   4   4   3   2
  0.9301782615595632E+00   4   4   3   3
  0.5192164493230933E-16   4   4   4   1
 -0.2775557561562891E-15   4   4   4   2
 -0.3269953752216281E-15   4   4   4   3
  0.1032198951517012E+01   4   4   4   4
 -0.1149122855287371E+00   5   1   1   1
 -0.1800900299558642E-16   5   1   2   1
 -0.1091719533628966E+00   5   1   2   2
 -0.1027054582135656E-15   5   1   3   1
 -0.7446649915126254E-16   5   1   3   2
 -0.1091719533628970E+00   5   1   3   3
 -0.9015008710340418E-16   5   1   4   1
  0.7807664665622284E-16   5   1   4   2
  0.7526407501550681E-16   5   1   4   3
 -0.1091719533628965E+00   5   1   4   4
  0.2365077966508923E-01   5   1   5   1
 -0.6269428508731272E-16   5   2   1   1
 -0.2016119279813334E-01   5   2   2   1
 -0.6148639732685792E-16   5   2   2   2
 -0.2522996418427087E-16   5   2   3   1
 -0.2304328558341426E-16   5   2   3   2
 -0.5735657223290482E-16   5   2   3   3
  0.5917542972207263E-16   5   2   4   1
 -0.2365381945488779E-16   5   2   4   2
 -0.1926191058166267E-17   5   2   4   3
 -0.5762207086010335E-16   5   2   4   4
  0.1542412768754904E-16   5   2   5   1
  0.1188081719806548E-01   5   2   5   2
 -0.3586194122814126E-15   5   3   1   1
 -0.4720054108751927E-16   5   3   2   1
 -0.3262438148077243E-15   5   3   2   2
 -0.2016119279813356E-01   5   3   3   1
 -0.5040174455899743E-17   5   3   3   2
 -0.3744118115662250E-15   5   3   3   3
  0.4784738679395333E-16   5   3   4   1
 -0.2469878155892414E-17   5   3   4   2
 -0.1617575955774473E-16   5   3   4   3
 -0.3290193582235725E-15   5   3   4   4
  0.8842160245713998E-16   5   3   5   1
  0.6632808797855997E-17   5   3   5   2
  0.1188081719806543E-01   5   3   5   3
 -0.3160332675509534E-15   5   4   1   1
  0.4767708599782580E-16   5   4   2   1
 -0.2903288699754648E-15   5   4   2   2
  0.4704653253504728E-16   5   4   3   1
 -0.2781844673282905E-17   5   4   3   2
 -0.2837315259386121E-15   5   4   3   3
 -0.2016119279813324E-01   5   4   4   1
 -0.5202353001233674E-17   5   4   4   2
 -0.2617438580347727E-16   5   4   4   3
 -0.3402166097167588E-15   5   4   4   4
  0.7779921189936641E-16   5   4   5   1
  0.9167321042444848E-17   5   4   5   2
  0.3538776630256151E-17   5   4   5   3
  0.1188081719806547E-01   5   4   5   4
  0.3974481371465772E+00   5   5   1   1
  0.3815541768514020E-16   5   5   2   1
  0.3948669408444793E+00   5   5   2   2
  0.2206760132479289E-15   5   5   3   1
  0.1660937024155709E-16   5   5   3   2
  0.3948669408444794E+00   5   5   3   3
  0.1935198112585638E-15   5   5   4   1
 -0.2306513285774204E-17   5   5   4   2
 -0.7911507924053771E-17   5   5   4   3
  0.3948669408444793E+00   5   5   4   4
 -0.8971210668225250E-02   5   5   5   1
  0.6453360979439681E-17   5   5   5   2
  0.3812058365310410E-16   5   5   5   3
  0.3318923066818359E-16   5   5   5   4
  0.3162830442770103E+00   5   5   5   5
  0.3976708825801130E-15   6   1   1   1
 -0.7570897224835649E-02   6   1   2   1
  0.3765960121063704E-15   6   1   2   2
 -0.1735542854829826E-01   6   1   3   1
 -0.9264538641789347E-17   6   1   3   2
  0.3890479983637064E-15   6   1   3   3
 -0.3113066830530713E-01   6   1   4   1
 -0.4195894910444629E-17   6   1   4   2
  0.3645561013070531E-17   6   1   4   3
  0.3716428153226264E-15   6   1   4   4
 -0.5303854667195990E-16   6   1   5   1
  0.1591150589952939E-02   6   1   5   2
  0.3647533383879827E-02   6   1   5   3
  0.6542630254856519E-02   6   1   5   4
  0.2926254654183219E-16   6   1   5   5
  0.8274973910153310E-02   6   1   6   1
 -0.2695488041727556E-01   6   2   1   1
  0.6326065947094157E-16   6   2   2   1
 -0.2841780210533134E-01   6   2   2   2
 -0.1208195494903642E-16   6   2   3   1
 -0.4266905969361438E-02   6   2   3   2
 -0.2469512749984143E-01   6   2   3   3
 -0.7487019248533279E-17   6   2   4   1
 -0.7653607287913923E-02   6   2   4   2
  0.1497215437566701E-16   6   2   4   3
 -0.2469512749984130E-01   6   2   4   4
  0.5021261651384499E-02   6   2   5   1
 -0.2795806361541253E-16   6   2   5   2
  0.1534726379252098E-16   6   2   5   3
  0.1403107490674432E-16   6   2   5   4
 -0.2877616387538469E-02   6   2   5   5
 -0.2018406033635855E-16   6   2   6   1
  0.4024175482838632E-02   6   2   6   2
 -0.6179102518725666E-01   6   3   1   1
 -0.8667503735755670E-17   6   3   2   1
 -0.5661079632789719E-01   6   3   2   2
  0.8448293949075927E-16   6   3   3   1
 -0.1861337302745047E-02   6   3   3   2
 -0.6514460826662022E-01   6   3   3   3
  0.3537938021091239E-17   6   3   4   1
  0.2835188681049594E-16   6   3   4   2
 -0.7653607287913939E-02   6   3   4   3
 -0.5661079632789710E-01   6   3   4   4
  0.1151067637360588E-01   6   3   5   1
  0.7686450078480904E-17   6   3   5   2
  0.2273669373209273E-17   6   3   5   3
  0.3422185898403399E-16   6   3   5   4
 -0.6596611223238364E-02   6   3   5   5
 -0.5474155944559574E-16   6   3   6   1
  0.2657449917477328E-02   6   3   6   2
  0.8956829908664241E-02   6   3   6   3
 -0.1108354025368029E+00   6   4   1   1
 -0.3255570328253400E-17   6   4   2   1
 -0.1015435555554668E+00   6   4   2   2
  0.2625367356249688E-17   6   4   3   1
 -0.7171997370991612E-16   6   4   3   2
 -0.1015435555554672E+00   6   4   3   3
  0.5992277960693902E-16   6   4   4   1
 -0.1861337302744940E-02   6   4   4   2
 -0.4266905969361341E-02   6   4   4   3
 -0.1168507701312946E+00   6   4   4   4
  0.2064685681250980E-01   6   4   5   1
  0.1176620829630961E-16   6   4   5   2
  0.5944420411183950E-16   6   4   5   3
  0.2469315244914209E-16   6   4   5   4
 -0.1183243129711352E-01   6   4   5   5
 -0.9387017942734325E-16   6   4   6   1
  0.4766704071220635E-02   6   4   6   2
  0.1092713181306570E-01   6   4   6   3
  0.2246507049761080E-01   6   4   6   4
 -0.2330413300087754E-15   6   5   1   1
  0.8181960858104702E-02   6   5   2   1
 -0.2439554103790881E-15   6   5   2   2
  0.1875622305266393E-01   6   5   3   1
  0.1272433007216342E-16   6   5   3   2
 -0.2333140005286903E-15   6   5   3   3
  0.3364329246540483E-01   6   5   4   1
  0.8709313197505449E-17   6   5   4   2
  0.2082283500823605E-16   6   5   4   3
 -0.2157361412204774E-15   6   5   4   4
  0.7531450368164065E-17   6   5   5   1
  0.2828286888587479E-02   6   5   5   2
  0.6483528906976346E-02   6   5   5   3
  0.1162959400796490E-01   6   5   5   4
  0.2869196582787315E-15   6   5   5   5
 -0.2977833427491509E-03   6   5   6   1
 -0.7724522426635953E-17   6   5   6   2
 -0.5756094262267926E-17   6   5   6   3
 -0.2143234536667277E-16   6   5   6   4
  0.5870359607606172E-01   6   5   6   5
  0.3301017559765288E+00   6   6   1   1
 -0.5452395223020174E-16   6   6   2   1
  0.3247162045633334E+00   6   6   2   2
 -0.1336908409647224E-15   6   6   3   1
  0.1336921116571948E-02   6   6   3   2
  0.3271977451633154E+00   6   6   3   3
 -0.2354106680815351E-15   6   6   4   1
  0.2398053595423451E-02   6   6   4   2
  0.5497267575345457E-02   6   6   4   3
  0.3339935278316263E+00   6   6   4   4
 -0.6698078489586059E-02   6   6   5   1
 -0.2236996261128705E-16   6   6   5   2
 -0.6680165401277470E-16   6   6   5   3
 -0.9525189003721441E-16   6   6   5   4
  0.2800924987098084E+00   6   6   5   5
  0.2539335292064321E-16   6   6   6   1
 -0.1296401470944712E-02   6   6   6   2
 -0.2971854250653610E-02   6   6   6   3
 -0.5330655401066722E-02   6   6   6   4
 -0.4090189328260219E-15   6   6   6   5
  0.2814767936698754E+00   6   6   6   6
  0.1418731929274606E-15   7   1   1   1
  0.6765548559839292E-02   7   1   2   1
  0.1380309820495015E-15   7   1   2   2
 -0.3194640985372205E-01   7   1   3   1
  0.1040510094875505E-16   7   1   3   2
  0.1314696178953891E-15   7   1   3   3
  0.1616484284370341E-01   7   1   4   1
  0.2760357964757833E-17   7   1   4   2
  0.4402186505781679E-17   7   1   4   3
  0.1375406591478776E-15   7   1   4   4
 -0.1892317154370779E-16   7   1   5   1
 -0.1421893107600241E-02   7   1   5   2
  0.6714071975363842E-02   7   1   5   3
 -0.3397311898896342E-02   7   1   5   4
  0.1046321293859005E-16   7   1   5   5
 -0.1621844603098607E-16   7   1   6   1
 -0.2036931232498008E-17   7   1   6   2
 -0.3947178498397402E-16   7   1   6   3
 -0.1511160487967024E-16   7   1   6   4
  0.1487505351670589E-16   7   1   6   5
  0.9231647952486207E-17   7   1   6   6
  0.8274973910153298E-02   7   1   7   1
  0.2408757469187507E-01   7   2   1   1
  0.3531206224082323E-16   7   2   2   1
  0.2539487915340120E-01   7   2   2   2
  0.1864624732552620E-16   7   2   3   1
 -0.7854160819202500E-02   7   2   3   2
  0.2206820134125202E-01   7   2   3   3
  0.1043866345518760E-16   7   2   4   1
  0.3974195407024398E-02   7   2   4   2
 -0.2683400376901623E-17   7   2   4   3
  0.2206820134125193E-01   7   2   4   4
 -0.4487128609098006E-02   7   2   5   1
 -0.1309398863362387E-16   7   2   5   2
 -0.1185204305385295E-16   7   2   5   3
 -0.1177538541955983E-16   7   2   5   4
  0.2571512045179439E-02   7   2   5   5
  0.1064483051697890E-16   7   2   6   1
 -0.1035935610117597E-02   7   2   6   2
 -0.1599472630705373E-02   7   2   6   3
 -0.4069250329656116E-02   7   2   6   4
  0.4990486645274314E-18   7   2   6   5
  0.1991565233938651E-02   7   2   6   6
  0.5889720176087507E-17   7   2   7   1
  0.3790664218283894E-02   7   2   7   2
 -0.1137397103402163E+00   7   3   1   1
  0.1726485725696509E-16   7   3   2   1
 -0.1042043817358758E+00   7   3   2   2
  0.1303773718529292E-16   7   3   3   1
  0.1663338906074579E-02   7   3   3   2
 -0.1199127033742812E+00   7   3   3   3
 -0.1649056530496473E-17   7   3   4   1
  0.6521476067500309E-16   7   3   4   2
  0.3974195407024495E-02   7   3   4   3
 -0.1042043817358757E+00   7   3   4   4
  0.2118788274812297E-01   7   3   5   1
  0.7763450038414645E-17   7   3   5   2
  0.5381289182277624E-16   7   3   5   3
  0.4731581490087147E-16   7   3   5   4
 -0.1214248586237862E-01   7   3   5   5
 -0.7840006329706894E-16   7   3   6   1
  0.4116316799971168E-02   7   3   6   2
  0.1121346409920573E-01   7   3   6   3
  0.1736229492956744E-01   7   3   6   4
  0.1641785998680013E-17   7   3   6   5
 -0.9404020775418099E-02   7   3   6   6
 -0.3255001651206798E-16   7   3   7   1
 -0.4371268371510721E-02   7   3   7   2
  0.2350572495002300E-01   7   3   7   3
  0.5755214908831854E-01   7   4   1   1
  0.1580787461193994E-16   7   4   2   1
  0.5272728491553649E-01   7   4   2   2
  0.3138143593623198E-17   7   4   3   1
  0.3854338723185968E-16   7   4   3   2
  0.5272728491553666E-01   7   4   3   3
  0.2907806490539839E-16   7   4   4   1
  0.1663338906074590E-02   7   4   4   2
 -0.7854160819202538E-02   7   4   4   3
  0.6067567572958525E-01   7   4   4   4
 -0.1072104178161095E-01   7   4   5   1
 -0.6870587132347595E-17   7   4   5   2
 -0.2384245461569450E-16   7   4   5   3
 -0.4019865030121986E-16   7   4   5   4
  0.6144082436680275E-02   7   4   5   5
  0.2775918221097959E-16   7   4   6   1
 -0.2665547422921115E-02   7   4   6   2
 -0.2922550420691214E-02   7   4   6   3
 -0.1017752848908811E-01   7   4   6   4
 -0.1485586822841331E-16   7   4   6   5
  0.4758422577986325E-02   7   4   6   6
  0.1848834207041323E-16   7   4   7   1
  0.2211856248532086E-02   7   4   7   2
 -0.1044421832585309E-01   7   4   7   3
  0.8149686720806884E-02   7   4   7   4
 -0.8355222782005351E-16   7   5   1   1
 -0.7311610745239592E-02   7   5   2   1
 -0.8181263432156109E-16   7   5   2   2
  0.3452487429398472E-01   7   5   3   1
 -0.5394931011646138E-17   7   5   3   2
 -0.5716345965744099E-16   7   5   3   3
 -0.1746954257822043E-01   7   5   4   1
  0.1125801425252752E-17   7   5   4   2
  0.5938013637676559E-18   7   5   4   3
 -0.1030132156998426E-15   7   5   4   4
  0.2919969882270528E-17   7   5   5   1
 -0.2527429935665391E-02   7   5   5   2
  0.1193433346715195E-01   7   5   5   3
 -0.6038757588855820E-02   7   5   5   4
  0.1037101254264208E-15   7   5   5   5
  0.2162496289040479E-16   7   5   6   1
  0.7556152159169280E-17   7   5   6   2
 -0.3073748984129541E-16   7   5   6   3
  0.2290721858031228E-16   7   5   6   4
  0.3210985284283871E-16   7   5   6   5
 -0.4297569240053816E-16   7   5   6   6
 -0.2977833427491125E-03   7   5   7   1
  0.5733590297299746E-17   7   5   7   2
 -0.6656286683484260E-17   7   5   7   3
  0.8371391546082720E-17   7   5   7   4
  0.5870359607606178E-01   7   5   7   5
  0.3910005697756961E-16   7   6   1   1
  0.1279417559899566E-16   7   6   2   1
 -0.5211628574696355E-03   7   6   2   2
 -0.1459849628878276E-15   7   6   3   1
  0.6330922917648842E-03   7   6   3   2
  0.5641316829925688E-02   7   6   3   3
  0.1793963483899440E-16   7   6   4   1
 -0.1694085234127202E-02   7   6   4   2
  0.3632203795235798E-02   7   6   4   3
 -0.5120153972455970E-02   7   6   4   4
 -0.5475107162471186E-17   7   6   5   1
  0.5502039981851623E-17   7   6   5   2
 -0.4170211802485914E-16   7   6   5   3
  0.6169795114426186E-17   7   6   5   4
  0.3647501571758508E-16   7   6   5   5
  0.1180730983950237E-17   7   6   6   1
 -0.4165337615000445E-03   7   6   6   2
  0.1966840995242075E-02   7   6   6   3
 -0.9952190475305339E-03   7   6   6   4
 -0.5129184911910683E-16   7   6   6   5
 -0.1471206403847275E-17   7   6   6   6
  0.2316633833895639E-18   7   6   7   1
  0.4661165714943838E-03   7   6   7   2
  0.1068519702686112E-02   7   6   7   3
  0.1916618327772062E-02   7   6   7   4
 -0.1447862909896267E-15   7   6   7   5
  0.1783698877908816E-01   7   6   7   6
  0.3301017559765289E+00   7   7   1   1
  0.1889328773085286E-16   7   7   2   1
  0.3245987287311504E+00   7   7   2   2
 -0.8563662742187568E-16   7   7   3   1
 -0.2199116135224632E-02   7   7   3   2
  0.3345170646641868E+00   7   7   3   3
  0.4516365416284217E-16   7   7   4   1
  0.1112749973587930E-02   7   7   4   2
 -0.5254321420730876E-02   7   7   4   3
  0.3267916841629378E+00   7   7   4   4
 -0.6698078489586104E-02   7   7   5   1
  0.7551234254745816E-18   7   7   5   2
 -0.5583085361810457E-16   7   7   5   3
 -0.1397865284468701E-16   7   7   5   4
  0.2800924987098086E+00   7   7   5   5
  0.2307530638376246E-16   7   7   6   1
 -0.2228634613933472E-02   7   7   6   2
 -0.5108893656025824E-02   7   7   6   3
 -0.9163892056610820E-02   7   7   6   4
 -0.1212896633527763E-15   7   7   6   5
  0.2458028161116992E+00   7   7   6   6
  0.8162277940141675E-17   7   7   7   1
  0.1158497710938574E-02   7   7   7   2
 -0.5470338784933967E-02   7   7   7   3
  0.2767984482925234E-02   7   7   7   4
 -0.1501486638076305E-15   7   7   7   5
  0.8673617379884035E-16   7   7   7   6
  0.2814767936698754E+00   7   7   7   7
 -0.2084313629420437E-17   8   1   1   1
 -0.3499366745447821E-01   8   1   2   1
  0.3985735342729641E-17   8   1   2   2
 -0.2421547311552279E-02   8   1   3   1
  0.8803517061052352E-17   8   1   3   2
 -0.1349424797579890E-17   8   1   3   3
  0.9860387452959465E-02   8   1   4   1
  0.2493506119248497E-17   8   1   4   2
  0.7471488369199227E-17   8   1   4   3
  0.3698966208306940E-17   8   1   4   4
  0.3281102664428025E-18   8   1   5   1
  0.7354504091292704E-02   8   1   5   2
  0.5089286406815612E-03   8   1   5   3
 -0.2072325227381716E-02   8   1   5   4
 -0.1485510179224724E-18   8   1   5   5
  0.3488764145222939E-16   8   1   6   1
 -0.2572168230495223E-16   8   1   6   2
 -0.2333230178269078E-17   8   1   6   3
  0.6347664579768804E-17   8   1   6   4
 -0.1284683106762548E-16   8   1   6   5
  0.5801369163793991E-18   8   1   6   6
  0.9250850528644374E-17   8   1   7   1
 -0.1073107558472017E-16   8   1   7   2
 -0.2017418025877449E-17   8   1   7   3
 -0.1403682721636088E-17   8   1   7   4
 -0.4141349351889552E-17   8   1   7   5
  0.8399223266962592E-18   8   1   7   6
 -0.1008191764153530E-17   8   1   7   7
  0.8274973910153359E-02   8   1   8   1
 -0.1245889481240244E+00   8   2   1   1
  0.4217490195700111E-17   8   2   2   1
 -0.1313507616242571E+00   8   2   2   2
  0.2055553557618305E-16   8   2   3   1
 -0.5953477121006094E-03   8   2   3   2
 -0.1141440774866881E+00   8   2   3   3
  0.5978955122970964E-17   8   2   4   1
  0.2424218218879746E-02   8   2   4   2
  0.6835894697521105E-16   8   2   4   3
 -0.1141440774866877E+00   8   2   4   4
  0.2320892163930920E-01   8   2   5   1
  0.1212140053289582E-16   8   2   5   2
  0.6418821782426016E-16   8   2   5   3
  0.5438419841988751E-16   8   2   5   4
 -0.1330071561356636E-01   8   2   5   5
 -0.8310844759684575E-16   8   2   6   1
  0.5358203540197250E-02   8   2   6   2
  0.1101208407328046E-01   8   2   6   3
  0.1952047217253755E-01   8   2   6   4
  0.1495593292344110E-16   8   2   6   5
 -0.1030103780852999E-01   8   2   6   6
 -0.3096111225823899E-16   8   2   7   1
 -0.4788228550479893E-02   8   2   7   2
  0.2016194192581337E-01   8   2   7   3
 -0.1007585038546096E-01   8   2   7   4
  0.1134329475417942E-16   8   2   7   5
 -0.5231275482242559E-17   8   2   7   6
 -0.1030103780853002E-01   8   2   7   7
  0.5431457154046450E-18   8   2   8   1
  0.2763123618799139E-01   8   2   8   2
 -0.8621503669809042E-02   8   3   1   1
  0.1816550491971782E-16   8   3   2   1
 -0.7898722942574436E-02   8   3   2   2
 -0.3537095771053908E-17   8   3   3   1
 -0.8603342068784749E-02   8   3   3   2
 -0.9089418366775489E-02   8   3   3   3
  0.1447147574772460E-16   8   3   4   1
  0.1658829323902822E-16   8   3   4   2
  0.2424218218879697E-02   8   3   4   3
 -0.7898722942574408E-02   8   3   4   4
  0.1606047776295715E-02   8   3   5   1
  0.8406038995641558E-17   8   3   5   2
  0.4030002782431548E-17   8   3   5   3
  0.5905564419232334E-19   8   3   5   4
 -0.9204040181742007E-03   8   3   5   5
 -0.8102025571982177E-17   8   3   6   1
  0.1641779071030701E-02   8   3   6   2
  0.8499838938695770E-03   8   3   6   3
  0.9926726766344110E-03   8   3   6   4
  0.2564567778810231E-17   8   3   6   5
 -0.7128275549824512E-03   8   3   6   6
 -0.9908208953716557E-18   8   3   7   1
  0.2116368593300325E-02   8   3   7   2
  0.1564578700379161E-02   8   3   7   3
 -0.1386952009154439E-02   8   3   7   4
 -0.3361499261416711E-17   8   3   7   5
 -0.1181780368009200E-16   8   3   7   6
 -0.7128275549824679E-03   8   3   7   7
 -0.2088432336575232E-17   8   3   8   1
  0.1713818454033546E-02   8   3   8   2
  0.2983521030426579E-02   8   3   8   3
  0.3510621750228513E-01   8   4   1   1
  0.7658358486806009E-17   8   4   2   1
  0.3216310010785495E-01   8   4   2   2
  0.1836185586484045E-16   8   4   3   1
  0.3924811864397526E-16   8   4   3   2
  0.3216310010785506E-01   8   4   3   3
  0.6095163908593669E-17   8   4   4   1
 -0.8603342068784707E-02   8   4   4   2
 -0.5953477121005510E-03   8   4   4   3
  0.3701153654561428E-01   8   4   4   4
 -0.6539724938138120E-02   8   4   5   1
  0.2494035228370157E-17   8   4   5   2
 -0.1923352960222255E-16   8   4   5   3
 -0.1824149987423796E-16   8   4   5   4
  0.3747826932458539E-02   8   4   5   5
  0.2026810165736956E-16   8   4   6   1
  0.1002036394929236E-02   8   4   6   2
 -0.2929125643719847E-02   8   4   6   3
 -0.6208187434066649E-02   8   4   6   4
  0.8462300641682769E-19   8   4   6   5
  0.2902588706708743E-02   8   4   6   6
  0.4618974631417996E-17   8   4   7   1
 -0.1539631765947177E-04   8   4   7   2
 -0.5775588312230414E-02   8   4   7   3
  0.3223649850100837E-02   8   4   7   4
  0.1799443986879404E-17   8   4   7   5
  0.3621912882459388E-17   8   4   7   6
  0.2902588706708760E-02   8   4   7   7
 -0.2504465074231663E-17   8   4   8   1
 -0.6978560319752694E-02   8   4   8   2
 -0.4829134872126785E-03   8   4   8   3
  0.4831318670695964E-02   8   4   8   4
  0.1336620067693174E-17   8   5   1   1
  0.3781808270423219E-01   8   5   2   1
  0.2038592271925293E-17   8   5   2   2
  0.2616995678421646E-02   8   5   3   1
  0.1922481103695103E-16   8   5   3   2
 -0.1595249806280830E-17   8   5   3   3
 -0.1065624083777120E-01   8   5   4   1
  0.1483035201915437E-16   8   5   4   2
 -0.3250089870932592E-17   8   5   4   3
 -0.1287539973954094E-16   8   5   4   4
 -0.6366606985721355E-19   8   5   5   1
  0.1307270828091843E-01   8   5   5   2
  0.9046260050777546E-03   8   5   5   3
 -0.3683579861329215E-02   8   5   5   4
 -0.1137183255212929E-17   8   5   5   5
 -0.2352023464594857E-16   8   5   6   1
 -0.3864868560034512E-16   8   5   6   2
 -0.4575619729404081E-17   8   5   6   3
  0.1140061296079220E-16   8   5   6   4
 -0.2218663427404007E-17   8   5   6   5
 -0.1709950801925659E-18   8   5   6   6
 -0.2314059218076967E-17   8   5   7   1
 -0.9430833894797489E-17   8   5   7   2
  0.2638222145101508E-17   8   5   7   3
  0.8500354850481780E-17   8   5   7   4
  0.6104849663120062E-17   8   5   7   5
 -0.5763483502837789E-18   8   5   7   6
  0.2323392854939630E-17   8   5   7   7
 -0.2977833427491712E-03   8   5   8   1
  0.2624951825361664E-17   8   5   8   2
  0.1078510815896789E-16   8   5   8   3
  0.6786301194494703E-17   8   5   8   4
  0.5870359607606173E-01   8   5   8   5
  0.1612978156418032E-15   8   6   1   1
 -0.1333728441218423E-15   8   6   2   1
  0.2695627643880767E-02   8   6   2   2
 -0.1290950687966551E-16   8   6   3   1
  0.3182979429373430E-02   8   6   3   2
  0.4276134835080301E-03   8   6   3   3
  0.3538727302842475E-16   8   6   4   1
  0.5162275098474931E-02   8   6   4   2
 -0.4870994643997909E-03   8   6   4   3
 -0.3123241127388334E-02   8   6   4   4
 -0.2264864239859527E-16   8   6   5   1
 -0.3748276546418035E-16   8   6   5   2
 -0.2704306442370994E-17   8   6   5   3
  0.1150478181220305E-16   8   6   5   4
  0.3021872474898791E-16   8   6   5   5
  0.3561523834911169E-18   8   6   6   1
  0.2154451158627363E-02   8   6   6   2
  0.1490871289164223E-03   8   6   6   3
 -0.6070733569203446E-03   8   6   6   4
 -0.5769870333876119E-18   8   6   6   5
  0.1032125191985205E-16   8   6   6   6
  0.1572657769014808E-17   8   6   7   1
  0.9080193194566100E-17   8   6   7   2
 -0.2766748418911447E-16   8   6   7   3
  0.1227858960339834E-16   8   6   7   4
 -0.8048236112693610E-18   8   6   7   5
  0.1040156459228281E-16   8   6   7   6
  0.3338626118165752E-16   8   6   7   7
  0.2130304253142181E-17   8   6   8   1
  0.4661165714943499E-03   8   6   8   2
  0.1068519702686106E-02   8   6   8   3
  0.1916618327772060E-02   8   6   8   4
 -0.1427772055390986E-15   8   6   8   5
  0.1783698877908812E-01   8   6   8   6
  0.5411059370607041E-16   8   7   1   1
 -0.4678654326783204E-16   8   7   2   1
 -0.2408882221263444E-02   8   7   2   2
 -0.2962683889272383E-17   8   7   3   1
  0.5603933225357542E-02   8   7   3   2
  0.7871148537245886E-03   8   7   3   3
  0.7888225453772623E-17   8   7   4   1
 -0.2538373483769287E-02   8   7   4   2
 -0.1801680502232650E-02   8   7   4   3
  0.1621767367538962E-02   8   7   4   4
 -0.3275327782794289E-17   8   7   5   1
 -0.1105596006993055E-16   8   7   5   2
 -0.1238820421915488E-17   8   7   5   3
  0.5430333339090097E-17   8   7   5   4
  0.1406906267855049E-16   8   7   5   5
  0.6775361587690873E-18   8   7   6   1
  0.1978668964786046E-17   8   7   6   2
 -0.1220405070403996E-16   8   7   6   3
 -0.4892462303340839E-17   8   7   6   4
 -0.6069935110808243E-18   8   7   6   5
  0.1278223011615700E-16   8   7   6   6
  0.1326632098406296E-18   8   7   7   1
  0.2154451158627377E-02   8   7   7   2
  0.1490871289164209E-03   8   7   7   3
 -0.6070733569203124E-03   8   7   7   4
  0.2145286768366989E-17   8   7   7   5
  0.1463672932855431E-16   8   7   7   6
  0.3908783490768342E-16   8   7   7   7
  0.1598115152124114E-17   8   7   8   1
 -0.4165337615000545E-03   8   7   8   2
  0.1966840995242066E-02   8   7   8   3
 -0.9952190475305328E-03   8   7   8   4
 -0.4713481224831602E-16   8   7   8   5
  0.1387778780781446E-16   8   7   8   6
  0.1783698877908815E-01   8   7   8   7
  0.3301017559765290E+00   8   8   1   1
  0.2941659333667334E-17   8   8   2   1
  0.3365925442637913E+00   8   8   2   2
  0.1739196109959542E-17   8   8   3   1
  0.8621950186527331E-03   8   8   3   2
  0.3241926677307732E+00   8   8   3   3
 -0.4784064592176635E-17   8   8   4   1
 -0.3510803569011377E-02   8   8   4   2
 -0.2429461546146003E-03   8   8   4   3
  0.3251222655637110E+00   8   8   4   4
 -0.6698078489586163E-02   8   8   5   1
 -0.4296415603021081E-17   8   8   5   2
 -0.2837906166434417E-16   8   8   5   3
 -0.2541541647129137E-16   8   8   5   4
  0.2800924987098085E+00   8   8   5   5
  0.2394028026970887E-16   8   8   6   1
 -0.2228634613933476E-02   8   8   6   2
 -0.5108893656025829E-02   8   8   6   3
 -0.9163892056610827E-02   8   8   6   4
 -0.1195006426949554E-15   8   8   6   5
  0.2458028161116990E+00   8   8   6   6
  0.8750396779277873E-17   8   8   7   1
  0.1991565233938673E-02   8   8   7   2
 -0.9404020775418114E-02   8   8   7   3
  0.4758422577986313E-02   8   8   7   4
 -0.3807561462148417E-16   8   8   7   5
  0.5833007687972014E-16   8   8   7   6
  0.2458028161116991E+00   8   8   7   7
 -0.4047916437391739E-18   8   8   8   1
 -0.5992135491275311E-02   8   8   8   2
 -0.4146532971495693E-03   8   8   8   3
  0.1688441992868139E-02   8   8   8   4
  0.4695744792105723E-17   8   8   8   5
  0.1474514954580286E-16   8   8   8   6
 -0.6071532165918825E-17   8   8   8   7
  0.2814767936698753E+00   8   8   8   8
  0.2020892388063981E-16   9   1   1   1
  0.1621496599890742E-16   9   1   2   1
  0.1703779430237600E-01   9   1   2   2
  0.8757307944889322E-17   9   1   3   1
  0.2553290737318505E-01   9   1   3   2
 -0.2113352294443826E-01   9   1   3   3
 -0.1930615031137127E-16   9   1   4   1
 -0.1212265137779001E-01   9   1   4   2
  0.8547842409203574E-04   9   1   4   3
  0.4095728642062290E-02   9   1   4   4
 -0.4148812837850240E-17   9   1   5   1
 -0.1332849101655003E-16   9   1   5   2
  0.4603659876483416E-17   9   1   5   3
  0.2601569263921795E-17   9   1   5   4
  0.9792918038172404E-18   9   1   5   5
 -0.1374867786526669E-17   9   1   6   1
 -0.5543762803729413E-03   9   1   6   2
  0.4862637568389308E-03   9   1   6   3
 -0.1059190459479297E-03   9   1   6   4
 -0.5284907222323264E-17   9   1   6   5
 -0.5387013130781905E-04   9   1   6   6
  0.2918399031297892E-17   9   1   7   1
 -0.2551761604535074E-02   9   1   7   2
  0.2417652675188298E-02   9   1   7   3
 -0.5277971363559341E-04   9   1   7   4
 -0.2109300936177111E-17   9   1   7   5
 -0.1197132901963797E-02   9   1   7   6
 -0.5436423114166601E-02   9   1   7   7
 -0.2074141415621962E-17   9   1   8   1
 -0.2213574578579049E-02   9   1   8   2
 -0.2395463179772664E-02   9   1   8   3
  0.1322017555539912E-02   9   1   8   4
  0.6049164881984871E-17   9   1   8   5
  0.9793705349184067E-03   9   1   8   6
  0.4727628525482741E-02   9   1   8   7
  0.5490293245474419E-02   9   1   8   8
  0.3361677551324856E-01   9   1   9   1
  0.1129648886335854E-15   9   2   1   1
  0.4129204987138814E-01   9   2   2   1
  0.1171806932578149E-15   9   2   2   2
  0.6188043275461221E-01   9   2   3   1
 -0.8616112533106387E-17   9   2   3   2
  0.1003616702488064E-15   9   2   3   3
 -0.2937992538126553E-01   9   2   4   1
  0.1021378955512325E-16   9   2   4   2
 -0.1167525655019629E-16   9   2   4   3
  0.1001175518072709E-15   9   2   4   4
 -0.4104707061858047E-16   9   2   5   1
  0.9079877639569667E-03   9   2   5   2